! Touchstone file from project TestMultiLine
! Exported from HFSS 14.0.0
! Variables:
!  gap = 8mm
!  hair = 35mm
!  hsub = 0.762mm
!  l = 36mm
!  lair = 50mm
!  lmic = 14mm
!  w = 25mm
!  wair = 40mm
!  wmic = 2.1mm
!  wp = 1mm
!Data is not renormalized
# GHZ S MA
! Modal data exported
! Port[1] = 1:1
! Port[2] = 2:1
1                0.123776047807639 -161.038619486454 0.987699852833455 -70.8074522155472 0.987699852833563 -70.8074522155473 0.123885046616688 -159.536911455885 
1.04             0.128407850006517 -163.993037581724 0.986947010304581 -73.6420645637988 0.986947010312472 -73.6420645634837 0.128514319195889 -162.269818949139 
1.08             0.133010427474226 -166.938534663332 0.986172562410257 -76.4773783276984 0.986172562425224 -76.4773783271627 0.133113896308316 -165.010317231019 
1.12             0.137584079833841 -169.875616986441 0.98537684260955 -79.3134592016995 0.98537684263079 -79.313459201023 0.137684147125844 -167.758322699774 
1.16             0.142129269043216 -172.804724651262 0.984560182833606 -82.1503756649154 0.984560182860259 -82.1503756641642 0.142225591556297 -170.513800262072 
1.2              0.146646622301556 -175.72624533563 0.983722910201548 -84.9881992782527 0.98372291023273 -84.9881992774805 0.146738902322114 -173.276755354066 
1.24             0.15113693454737 -178.64052548269 0.982865343334139 -87.8270049542691 0.982865343368967 -87.8270049535187 0.151224906861619 -176.047227352737 
1.28             0.155601170513216 178.452120513459 0.981987788341835 -90.6668712023939 0.981987788379447 -90.666871201698 0.155684589051768 -178.82528406243 
1.32             0.160040466313096 175.551402713652 0.981090534543394 -93.5078803519455 0.981090534582966 -93.5078803513284 0.160119090751656 178.388982961695 
1.36             0.164456130547482 172.657049317698 0.980173849955651 -96.3501187550962 0.980173849996406 -96.3501187545744 0.164529713165752 175.595462434965 
1.4              0.168849644919015 169.768801385274 0.979237976583217 -99.193676971612 0.979237976624435 -99.1936769711957 0.168917918025004 172.794026848762 
1.44             0.173222664358987 166.886408406227 0.97828312552818 -102.038649936874 0.978283125569202 -102.038649936568 0.173285328582719 169.984535568073 
1.48             0.177577016670937 164.009624573471 0.977309471933389 -104.885137114373 0.977309471973621 -104.885137114177 0.177633730420487 167.166837604636 
1.52             0.181914701703003 161.138205642492 0.976317149768372 -107.733242633592 0.976317149807288 -107.733242633503 0.181965072057535 164.340774130666 
1.56             0.186237890065124 158.271906285066 0.97530624646365 -110.583075413919 0.975306246500792 -110.583075413929 0.186281465354773 161.506180783749 
1.6              0.190548921410822 155.410477862928 0.974276797397112 -113.434749275003 0.974276797432088 -113.434749275103 0.190585185702462 158.662889802156 
1.64             0.194850302305949 152.553666561175 0.973228780234716 -116.288383033775 0.9732287802672  -116.288383033954 0.19487867197802 155.810732020837 
1.68             0.199144703708665 149.701211832109 0.972162109127125 -119.144100588146 0.972162109156852 -119.144100588391 0.199164526257929 152.949538751164 
1.72             0.203434958085877 146.852845108812 0.971076628763605 -122.002030987257 0.971076628790373 -122.002030987554 0.203445513265119 150.079143561628 
1.76             0.207724056191456 144.008288754461 0.969972108284727 -124.862308487998 0.969972108308389 -124.862308488334 0.207724559530643 147.199383971932 
1.8              0.212015143530859 141.167255218774 0.968848235055846 -127.725072597398 0.968848235076308 -127.725072597758 0.212004752245903 144.310103068933 
1.84             0.216311516535266 138.329446377253 0.967704608304115 -130.590468100363 0.967704608321335 -130.590468100733 0.21628933777922 141.411151049591 
1.88             0.220616618466079 135.494553032345 0.966540732622749 -133.458645072144 0.966540732636728 -133.45864507251 0.220581719828227 138.502386693279 
1.92             0.224934035067676 132.662254558462 0.965356011347451 -136.329758874829 0.965356011358234 -136.329758875178 0.224885457177399 135.583678763479 
1.96             0.229267489982726 129.832218675135 0.964149739811319 -139.203970137059 0.964149739818988 -139.203970137379 0.229204261028073 132.654907336854 
2                0.233620839940206 127.004101334516 0.962921098486146 -142.081444716093 0.962921098490815 -142.081444716374 0.233541991866658 129.715965056053 
2.04             0.237998069721583 124.177546711106 0.961669146019835 -144.962353641294 0.96166914602165 -144.962353641525 0.237902655835297 126.766758301159 
2.08             0.242403286905527 121.352187283023 0.960392812181677 -147.84687303801 0.960392812180808 -147.846873038183 0.242290400568223 123.807208273595 
2.12             0.246840716386062 118.527643995371 0.959090890729479 -150.7351840308  0.959090890726116 -150.735184030907 0.246709510456327 120.837251985379 
2.16             0.2513146946533  115.703526497422 0.957762032215008 -153.627472624882 0.957762032209361 -153.627472624918 0.251164401302188 117.856843145983 
2.2              0.255829663819933 112.879433446346 0.956404736746976 -156.523929564634 0.956404736739268 -156.523929564595 0.255659614327904 114.865952938655 
2.24             0.260390165370597 110.054952871175 0.955017346733731 -159.424750167942 0.955017346724195 -159.424750167824 0.260199809498659 111.864570677875 
2.28             0.265000833605004 107.229662591581 0.95359803963113 -162.330134135153 0.953598039620005 -162.330134134956 0.26478975812595 108.852704339715 
2.32             0.269666388739641 104.403130686913 0.952144820724601 -165.240285331372 0.952144820712128 -165.240285331095 0.269434334715863 105.83038095721  
2.36             0.274391629626767 101.57491601173  0.950655515978219 -168.155411540799 0.950655515964641 -168.155411540445 0.274138508029697 102.79764687342  
2.4              0.279181426043571 98.7445687548437 0.949127764987777 -171.075724191846 0.949127764973334 -171.075724191417 0.278907331326581 99.7545678457266 
2.44             0.284040710498755 95.9116310396489 0.94755901407922 -174.001438051712 0.947559014064144 -174.001438051211 0.283745931760449 96.7012289959496 
2.48             0.288974469498556 93.0756375642126 0.945946509598515 -176.932770889179 0.94594650958303 -176.932770888613 0.288659498906893 93.637734602261  
2.52             0.293987734209428 90.2361162802881 0.944287291443995 -179.869943104388 0.944287291428314 -179.869943103764 0.293653272398848 90.5642077303643 
2.56             0.299085570450379 87.3925891110653 0.942578186897397 177.186822675582 0.942578186881721 177.186822676257 0.298732528653837 87.4807897032049 
2.6              0.304273067944392 84.544572708072  0.940815804815237 174.237302036428 0.940815804799749 174.237302037145 0.303902566679468 84.3876394104002 
2.64             0.309555328755635 81.6915792482015 0.938996530247701 171.281269252639 0.938996530232569 171.281269253389 0.309168692948095 81.2849324606665 
2.68             0.314937454837326 78.8331172723437 0.937116519557939 168.318497800677 0.93711651954331 168.318497801449 0.314536205335849 78.1728601827209 
2.72             0.320424534614413 75.9686925675378 0.93517169612028 165.348760910066 0.935171696106284 165.34876091085  0.320010376125664 75.0516284823932 
2.76             0.326021628525777 73.0978090949278 0.933157746681583 162.371832152921 0.933157746668326 162.371832153706 0.325596434078397 71.9214565659738 
2.8              0.331733753452572 70.2199699660842 0.931070118475346 159.387486072233 0.931070118462913 159.387486073008 0.331299545580576 68.7825755420686 
2.84             0.337565865962926 67.334678470437  0.928904017183398 156.395498848992 0.928904017171855 156.395498849746 0.337124794881814 65.6352269164036 
2.88             0.343522844308496 64.4414391566438 0.926654405844741 153.395649007912 0.926654405834127 153.395649008633 0.343077163439354 62.4796609960479 
2.92             0.349609469115752 61.5397589706667 0.924316004815209 150.387718161195 0.924316004805545 150.387718161873 0.349161508391674 59.3161352213633 
2.96             0.355830402724257 58.6291484531565 0.921883292885032 147.371491789414 0.921883292876314 147.371491790039 0.35538254018759 56.1449124455843 
3                0.36219016713609 55.7091229984191 0.919350509663708 144.346760058138 0.919350509655914 144.346760058699 0.361744799401895 52.9662591832492 
3.04             0.36869312055478 52.7792041767581 0.916711659342838 141.313318668501 0.916711659335925 141.313318668989 0.36825263277334 49.7804438496852 
3.08             0.375343432509114 49.8389211213452 0.913960515947271 138.270969739382 0.913960515941177 138.270969739789 0.374910168505869 46.5877350143863 
3.12             0.382145057576762 46.887811979956  0.911090630183035 135.219522718345 0.911090630177682 135.219522718664 0.381721290879509 43.3883996913742 
3.16             0.389101707745116 43.9254254309126 0.908095337986666 132.158795317888 0.908095337981963 132.158795318113 0.388689614223379 40.1827016894896 
3.2              0.396216823471871 40.951322261412  0.904967770874557 129.088614472963 0.904967770870397 129.088614473088 0.395818456310111 36.9709000450245 
3.24             0.403493543535675 37.9650770050727 0.901700868182493 126.008817315083 0.901700868178762 126.008817315106 0.403110811238675 33.7532475581714 
3.28             0.410934673797468 34.9662796340289 0.898287391274552 122.919252157703 0.898287391271128 122.919252157621 0.41056932188143 30.5299894534586 
3.32             0.418542655025523 31.9545372992473 0.894719939786567 119.819779486887 0.894719939783322 119.8197794867   0.418196251981282 27.3013621826698 
3.36             0.426319529971416 28.9294761109568 0.890990969952558 116.710272950689 0.890990969949366 116.710272950398 0.425993457996351 24.0675923867613 
3.4              0.434266909919541 25.8907429492037 0.887092815042536 113.590620340006 0.887092815039271 113.590620339614 0.433962360802615 20.8288960310057 
3.44             0.442385940968734 22.8380072926002 0.883017707916965 110.460724553172 0.883017707913503 110.460724552683 0.442103917379752 17.585477725072  
3.48             0.450677270340241 19.7709630513717 0.878757805677066 107.320504535999 0.878757805673297 107.320504535419 0.450418592621861 14.3375302370195 
3.52             0.459141013040767 16.6893303888866 0.874305216361012 104.169896188647 0.874305216356835 104.169896187983 0.458906331433003 11.0852342073083 
3.56             0.46777671924153 13.5928575140133 0.869652027604308 101.008853230362 0.869652027599637 101.008853229624 0.467566531287335 7.82875806593828 
3.6              0.476583342763149 10.4813224249811 0.864790337148656 97.8373480130337 0.864790337143423 97.8373480122315 0.476398015455077 4.56825815278275 
3.64             0.485559211080374 7.35453458397007 0.859712285047798 94.6553722745413 0.859712285041956 94.6553722736862 0.485399007118195 1.30387903812228 
3.68             0.494701997279156 4.21233650051412 0.854410087382019 91.4629378231111 0.854410087375544 91.4629378222157 0.494567104623371 -1.96424596265503 
3.72             0.504008694409965 1.05460520102673 0.848876071255862 88.2600771443937 0.848876071248754 88.2600771434712 0.503899258143937 -5.23599408918602 
3.76             0.513475592684635 -2.11874643857185 0.84310271081725 85.0468439237033 0.843102710809537 85.0468439227675 0.513391748046538 -8.51125226296682 
3.8              0.523098259958335 -5.30776851997674 0.837082664001648 81.8233134768959 0.837082663993387 81.823313475961  0.523040165281602 -11.7899160554941 
3.84             0.532871525922895 -8.51247313149158 0.83080880967334 78.5895830847032 0.830808809664614 78.5895830837833 0.532839394138493 -15.0718885148881 
3.88             0.542789470412173 -11.732833559702 0.824274284808727 75.3457722269971 0.824274284799645 75.3457722261062 0.542783597725547 -18.3570788705589 
3.92             0.552845416184473 -14.9687837227111 0.817472521345056 72.0920227154659 0.817472521335758 72.0920227146171 0.552866206551077 -21.6454011376484 
3.96             0.563031926501476 -18.2202178412924 0.810397282303588 68.8284987255102 0.810397282294235 68.828498724716  0.563079910592805 -24.936772644917 
4                0.573340807768564 -21.4869903612143 0.80304269679014 65.555386730829  0.803042696780917 65.5553867301001 0.573416655248813 -28.231112511427 
4.04             0.583763117439073 -24.7689161363713 0.795403293479575 62.2728953471247 0.795403293470686 62.2728953464705 0.583867641562023 -31.5283400987758 
4.08             0.59428917731642 -28.0657708783102 0.787474032204934 58.9812550945851 0.787474032196594 58.9812550940129 0.594423331101006 -34.8283734667416 
4.12             0.604908592315438 -31.3772918733669 0.779250333297497 55.6807180922364 0.779250333289937 55.6807180917511 0.605073455861737 -38.1311278609857 
4.16             0.615610274669745 -34.7031789640824 0.770728104361395 52.3715577008424 0.770728104354844 52.3715577004464 0.615807033526643 -41.4365142619032 
4.2              0.62638247349822 -38.0430957869852 0.761903764215426 49.0540681346584 0.761903764210112 49.0540681343512 0.626612388378116 -44.7444380237952 
4.24             0.637212809573042 -41.3966712543972 0.752774263795054 45.728564065924  0.752774263791194 45.7285640657022 0.637477178113076 -48.0547976332317 
4.28             0.648088315066847 -44.7635012638156 0.743337103877854 42.3953802493636 0.743337103875652 42.3953802492205 0.648388426742815 -51.3674836147731 
4.32             0.658995477999295 -48.143150614813 0.733590349574252 39.0548711970223 0.733590349573886 39.054871196948  0.659332563688233 -54.6823776110915 
4.36             0.669920291055581 -51.5351551104656 0.72353264160966 35.7074109363098 0.723532641611277 35.7074109362914 0.67029546909528 -57.9993516629831 
4.4              0.680848304412066 -54.939023818185 0.713163204510852 32.3533928860013 0.713163204514564 32.3533928860227 0.681262525299615 -61.3182677127665 
4.44             0.691764682177816 -58.3542414636314 0.702481851894489 28.9932298859441 0.702481851900362 28.9932298859866 0.692218674264736 -64.6389773521418 
4.48             0.702654262044783 -61.7802709311763 0.691488989134405 25.6273544161739 0.691488989142459 25.6273544162164 0.703148480705774 -67.96132183273  
4.52             0.713501617732721 -65.2165558452016 0.680185613751189 22.2562190398782 0.68018561376139 22.2562190398977 0.714036200494177 -71.285132354256 
4.56             0.72429112381551 -68.6625232083472 0.668573313916698 18.8802971020241 0.668573313928958 18.8802971019962 0.724865853819277 -74.6102306417174 
4.6              0.735007022521021 -72.117586075561 0.656654265491295 15.5000837114311 0.656654265505472 15.500083711331  0.735621302464376 -77.9364298189206 
4.64             0.745633492103862 -75.5811462463521 0.644431228006474 12.1160970286205 0.644431228022369 12.1160970284232 0.746286330440741 -81.2635355815501 
4.68             0.756154716396024 -79.0525969618135 0.631907539964349 8.72887987509003 0.631907539981716 8.728879874772   0.756844727116484 -84.5913476685075 
4.72             0.766554955141483 -82.5313255975547 0.619087113743223 5.33900167208146 0.619087113761768 5.33900167162092 0.767280371882024 -87.919661625719 
4.76             0.776818614714069 -86.0167163484178 0.605974430271886 1.9470607090324  0.605974430291279 1.9470607084106  0.777577319313382 -91.2482708520367 
4.8              0.786930318801189 -89.5081529054815 0.592574533463299 -1.44631326533669 0.59257453348318 -1.4463132661345 0.787719883731865 -94.5769689123458 
4.84             0.796874978607584 -93.0050211301177 0.578893024183085 -4.84045614162638 0.578893024203078 -4.84045614261029 0.797692722016771 -97.9055520986565 
4.88             0.806637862092703 -96.506711733493 0.564936053275915 -8.23466625184958 0.564936053295641 -8.23466625302405 0.807480913508497 -101.233822215871 
4.92             0.816204661703115 -100.012622972672 0.5507103128944  -11.628200884051 0.550710312913491 -11.6282008854141 0.817070035844589 -104.561589565205 
4.96             0.825561559999436 -103.522163376178 0.536223025086846 -15.0202725043708 0.536223025104956 -15.020272505914 0.826446235601324 -107.888676094966 
5                0.83469529250859 -107.034754512363 0.5214819263242  -18.4100446540349 0.521481926341021 -18.4100446557428 0.835596292668381 -111.214918685651 
5.04             0.843593207060807 -110.54983381312 0.506495246409994 -21.7966274431093 0.50649524642527 -21.7966274449596 0.844507677362865 -114.540172534146 
5.08             0.852243318801718 -114.066857463331 0.491271680051604 -25.1790724929369 0.491271680065141 -25.1790724949007 0.853168599389569 -117.864314600299 
5.12             0.860634360008494 -117.58530336302 0.475820349310677 -28.5563670775105 0.475820349322347 -28.5563670795537 0.861568047874326 -121.187247078219 
5.16             0.868755823791125 -121.10467416454 0.460150755228438 -31.927427071164 0.460150755238193 -31.9274270732473 0.869695821833063 -124.508900854432 
5.2              0.87659800073112 -124.624500381492 0.444272717167277 -35.2910881136736 0.444272717175142 -35.2910881157549 0.877542550587177 -127.829238915402 
5.24             0.884152007505105 -128.144343559595 0.428196298844472 -38.6460941376553 0.428196298850548 -38.6460941396904 0.88509970379166 -131.148259667889 
5.28             0.891409806564365 -131.663799492689 0.411931720666337 -41.99108204376  0.411931720670789 -41.9910820457054 0.892359590901844 -134.466000137089 
5.32             0.898364215995967 -135.182501459734 0.395489258794715 -45.3245608224206 0.395489258797768 -45.3245608242346 0.899315350063363 -137.782539009422 
5.36             0.905008908778534 -138.700123451342 0.378879132369635 -48.6448827546032 0.378879132371556 -48.6448827562482 0.905960926563897 -141.097999489076 
5.4              0.911338400765757 -142.216383347306 0.362111381433402 -51.9502033963756 0.362111381434486 -51.9502033978202 0.912291041130913 -144.412551939878 
5.44             0.917348026881897 -145.731046000091 0.345195739304628 -55.2384257319725 0.345195739305179 -55.2384257331925 0.91830114849382 -147.726416286661 
5.48             0.923033905192746 -149.243926173495 0.328141504388841 -58.5071219533666 0.328141504389156 -58.507121954347 0.923987386749531 -151.039864152865 
5.52             0.9283928887184  -152.754891280873 0.310957417657755 -61.7534234355716 0.310957417658106 -61.7534234363071 0.929346518175613 -154.353220713549 
5.56             0.93342250507567 -156.26386386362 0.293651553300602 -64.973865023878 0.293651553301222 -64.9738650243732 0.934375862224552 -157.666866245241 
5.6              0.938120884271889 -159.770823748032 0.276231231454989 -68.1641626896898 0.276231231456061 -68.1641626899598 0.939073221506053 -160.9812373559  
5.64             0.942486675212521 -163.275809817317 0.258702963727563 -71.3188920937012 0.258702963729211 -71.3188920937703 0.943436801622904 -164.296827879751 
5.68             0.946518951726249 -166.778921335307 0.241072444967722 -74.4310162272478 0.241072444970009 -74.431016227149 0.947465125771285 -167.614189422707 
5.72             0.950217109148048 -170.280318759331 0.223344609550038 -77.4911766517732 0.223344609552966 -77.4911766515467 0.951156945051055 -170.933931544525 
5.76             0.953580752728762 -173.780223981581 0.205523779414792 -80.486602220457 0.205523779418305 -80.4866022201484 0.954511145458305 -174.256721563646 
5.8              0.956609579355721 -177.278919941098 0.187613948758318 -83.3993752852689 0.187613948762314 -83.3993752849276 0.957526652554852 -177.583283969949 
5.84             0.959303254271018 179.22325044799  0.169619286208389 -86.2035710307073 0.169619286212728 -86.2035710303858 0.960202334831017 179.085600570734 
5.88             0.961661284661552 175.725886102145 0.151545011935171 -88.8603180922319 0.15154501193969 -88.860318091984 0.962536906802847 175.749096638349 
5.92             0.963682892168211 172.228530353435 0.133398980411312 -91.3087877008475 0.133398980415835 -91.3087877007289 0.96452883291689 172.406315927022 
5.96             0.965366886521868 168.730674354025 0.115194722734063 -93.4486081329551 0.115194722738413 -93.448608133025 0.966176233378379 169.056319583274 
6                0.96671154266293 165.231761334444 0.0969578437060173 -95.1025250393722 0.0969578437100314 -95.1025250397004 0.96747679307569 165.698121040281 
6.04             0.967714483840583 161.73119174352  0.0787411660213715 -95.9280757275957 0.0787411660249012 -95.9280757282779 0.968427674848198 162.330689377507 
6.08             0.968372573318816 158.22832929065  0.0606666874960505 -95.1768225943726 0.060666687498962 -95.1768225955706 0.969025438438245 158.952953238148 
6.12             0.96868181743855 154.722507902951 0.0430699268808895 -90.903071192012 0.0430699268830381 -90.9030711940748 0.969265966582215 155.563805339572 
6.16             0.96863728289677 151.213039600468 0.0271678685268228 -76.7906693560128 0.0271678685279338 -76.7906693597631 0.969144399830618 152.162107614104 
6.2              0.968233031200101 147.699223281717 0.0185666342710877 -35.4345480655318 0.0185666342706234 -35.4345480700733 0.968655081841021 148.746697018813 
6.24             0.967462073324214 144.180354399066 0.026282020918929 8.31178076688311 0.0262820209179818 8.31178076611092 0.967791517057289 145.316392052949 
6.28             0.96631634765092 140.655735488459 0.0423404096788919 23.7533954775224 0.042340409678371 23.7533954775647 0.966546342867982 141.87000002006  
6.32             0.964786724247208 137.124687500382 0.060561585467652 28.4144144159995 0.0605615854675624 28.4144144160288 0.9649113185176  138.406325068071 
6.36             0.962863038476392 133.586561858578 0.0795811479756405 29.2702868338175 0.0795811479758734 29.2702868337432 0.962877333215058 134.9241770343   
6.4              0.960534156769292 130.040753149575 0.0990281724958992 28.4369738743352 0.0990281724963321 28.4369738741764 0.960434436029438 131.422381113052 
6.44             0.957788077108716 126.486712319683 0.118765482262099 26.7155799431987 0.118765482262612 26.7155799429927 0.957571890265145 127.89978835054  
6.48             0.954612066367842 122.923960226895 0.138729295794225 24.468697363249  0.13872929579471 24.4686973630331 0.954278255044907 124.355286955131 
6.52             0.950992836067625 119.352101363618 0.15888352633074 21.8826867690727 0.158883526331104 21.8826867688802 0.950541496774156 120.787814389794 
6.56             0.946916757358285 115.770837533183 0.179203520709128 19.0626608571857 0.179203520709302 19.0626608570461 0.946349132985919 117.196370188107 
6.6              0.942370115069909 112.179981229764 0.199669263428031 16.0722479371277 0.19966926342797 16.0722479370651 0.941688410741938 113.580029405116 
6.64             0.937339399511645 108.579468439365 0.220262169636707 12.9521773313428 0.220262169636394 12.9521773313765 0.936546521264054 109.937956580059 
6.68             0.931811633336135 104.969370550645 0.240963424525982 9.72974505274131 0.240963424525429 9.72974505288542 0.930910851763882 106.269420050025 
6.72             0.925774729251117 101.349905041104 0.261753064542603 6.4239772410344  0.261753064541849 6.42397724129786 0.924769274508699 102.573806412977 
6.76             0.919217872699653 97.7214445887344 0.282609451688678 3.04860915117027 0.282609451687789 3.04860915155737 0.918110471998106 98.8506348966483 
6.8              0.912131921912213 94.0845242545238 0.303508978227233 -0.386114226620245 0.303508978226298 -0.386114226110061 0.910924295735176 95.0995713484282 
6.84             0.904509816048309 90.4398463894902 0.3244259215196  -3.87230634065503 0.324425921518721 -3.87230634002639 0.903202154483033 91.3204415227841 
6.88             0.89634698060217 86.788282943409  0.34533240759371 -7.40370369132971 0.345332407593005 -7.40370369059117 0.894937426152641 87.5132433094566 
6.92             0.8876417179701  83.1308748926182 0.366198461184931 -10.9751745078381 0.366198461184524 -10.9751745070016 0.886125885646332 83.6781575203    
6.96             0.878395570195621 79.4688285617937 0.386992129559751 -14.5823828157237 0.386992129559763 -14.5823828148037 0.876766139188646 79.815556837486  
7                0.868613640545662 75.8035086888985 0.40767967205539 -18.2215544964264 0.407679672055937 -18.2215544954397 0.866860054040618 75.926012522493  
7.04             0.858304860830584 72.1364281717634 0.428225809188092 -21.8893121950896 0.428225809189277 -21.8893121940542 0.856413171163916 72.0102984940925 
7.08             0.847482192333415 68.469234535718  0.448594025560107 -25.5825579378096 0.448594025562012 -25.5825579367444 0.845435087531168 68.0693924025029 
7.12             0.836162749883829 64.8036932698131 0.468746920280386 -29.298389632456 0.468746920283073 -29.29838963138  0.833939794510042 64.1044733509372 
7.16             0.824367840969214 61.1416682887953 0.488646597608383 -33.0340421882252 0.488646597611883 -33.0340421871571 0.821945959183876 60.1169159355802 
7.2              0.812122914727814 57.4850998827363 0.508255089310705 -36.7868468913179 0.508255089315022 -36.7868468902756 0.809477136639752 56.1082802757963 
7.24             0.799457419068633 53.8359806094553 0.527534798996577 -40.5542045522629 0.527534799001682 -40.5542045512629 0.796561903065005 52.0802976667921 
7.28             0.786404567812118 50.1963296603683 0.546448957638126 -44.3335691733769 0.546448957643959 -44.3335691724335 0.783233901675008 48.0348513789769 
7.32             0.773001023414402 46.5681662828409 0.564962078721137 -48.1224397049048 0.564962078727608 -48.1224397040307 0.76953179552093 43.9739519186786 
7.36             0.759286504283515 42.9534828677048 0.583040401114711 -51.9183580113988 0.583040401121699 -51.9183580106043 0.75549912221317 39.899705721649  
7.4              0.745303328687586 39.3542183074458 0.600652307863   -55.7189115495345 0.600652307870366 -55.7189115488272 0.741184044197206 35.8142757591312 
7.44             0.731095909595429 35.7722321989052 0.617768709720108 -59.5217395261505 0.617768709727687 -59.5217395255355 0.726638982548742 31.7198319338038 
7.48             0.716710216335438 32.2092804065562 0.634363383361414 -63.3245415014572 0.634363383369029 -63.3245415009372 0.711920109986606 27.618488588525  
7.52             0.702193219631724 28.6669924228444 0.650413255764453 -67.1250875541596 0.650413255771917 -67.125087553735 0.697086657749359 23.5122263436308 
7.56             0.687592336370913 25.1468508665713 0.665898628178487 -70.9212292504925 0.665898628185609 -70.921229250161 0.682199960805153 19.4027966302311 
7.6              0.672954889431239 21.6501733557408 0.680803335286405 -74.7109107692886 0.680803335292999 -74.7109107690462 0.667322131855208 15.2916110879319 
7.64             0.65832759618817 18.1780968849519 0.695114837480476 -78.4921796370488 0.695114837486361 -78.4921796368895 0.652514234315627 11.1796263531395 
7.68             0.643756097061109 14.7315647364513 0.708824246493711 -82.263196624129 0.70882424649872 -82.2631966240454 0.63783385583906 7.06724929335874 
7.72             0.629284532870898 11.3113158647575 0.721926286825658 -86.0222444469484 0.72192628682964 -86.022244446932 0.623332126646707 2.95430742706773 
7.76             0.614955177030883 7.91787662269678 0.734419197364392 -89.7677350113492 0.734419197367218 -89.7677350113903 0.609050537611061 -1.15985366272126 
7.8              0.600808125875787 4.55155464569227 0.746304579248193 -93.4982150177919 0.746304579249756 -93.4982150178805 0.595018370481902 -5.27608760992143 
7.84             0.586881047899135 1.21243468367673 0.757587197271009 -97.2123698284328 0.75758719727123 -97.2123698285585 0.581251947592089 -9.39496825666346 
7.88             0.573208990443693 -2.09962383303864 0.768274742986122 -100.909025567686 0.768274742984943 -100.909025567839 0.567756819862669 -13.5162012763183 
7.92             0.559824240555402 -5.38498768683008 0.778377568101651 -104.58714949028 0.778377568099044 -104.58714949045 0.554533072023217 -17.6381213977539 
7.96             0.546756235316887 -8.64424937507385 0.787908396814666 -108.245848703047 0.787908396810629 -108.245848703224 0.541582346205643 -21.7575016859468 
8                0.534031516034584 -11.8782253109779 0.796882025442645 -111.884367368293 0.7968820254372  -111.884367368468 0.52891397842018 -25.8697924356796 
8.04             0.521673720148223 -15.0879527372328 0.805315017140929 -115.50208254749 0.805315017134121 -115.502082547656 0.516547878746217 -29.9697043189259 
8.08             0.509703604623868 -18.27468528354  0.813225398709528 -119.098498864758 0.813225398701418 -119.098498864907 0.504513444348573 -34.051894999304 
8.12             0.498139094827533 -21.4398870141735 0.820632365560229 -122.673242180927 0.820632365550901 -122.673242181055 0.492845649610246 -38.1115149748767 
8.16             0.486995353390268 -24.5852247326348 0.827555999901164 -126.226052472065 0.827555999890712 -126.226052472166 0.481580292657647 -42.1444897592114 
8.2              0.476284864296928 -27.7125582451854 0.8340170061587  -129.756776102479 0.834017006147233 -129.756776102549 0.470750016049183 -46.1475536246242 
8.24             0.466017528287374 -30.8239282417799 0.840036466644983 -133.265357672815 0.840036466632616 -133.265357672853 0.460381819619665 -50.1181259735258 
8.28             0.456200766579286 -33.921541439529 0.845635619531837 -136.751831610258 0.845635619518694 -136.751831610262 0.450496022647791 -54.0541276173581 
8.32             0.446839630838466 -37.0077526570552 0.85083566033562 -140.216313651379 0.850835660321824 -140.216313651347 0.441106268252321 -57.9538038444863 
8.36             0.437936918173161 -40.0850435528055 0.855657567370505 -143.658992349967 0.855657567356179 -143.658992349902 0.432220119279417 -61.8155861324163 
8.4              0.429493290658472 -43.1559978685843 0.860121950997971 -147.08012072331 0.860121950983241 -147.080120723212 0.423839902044089 -65.6379997050275 