! Touchstone file from project TestMultiLine
! Exported from HFSS 14.0.0
! Variables:
!  gap = 3.5mm
!  hair = 35mm
!  hsub = 0.762mm
!  l = 31.5mm
!  lair = 50mm
!  lmic = 14mm
!  w = 25mm
!  wair = 40mm
!  wmic = 2.1mm
!  wp = 1mm
!Data is not renormalized
# GHZ S MA
! Modal data exported
! Port[1] = 1:1
! Port[2] = 2:1
1                0.00566886256198441 174.622182285418 0.996360205307298 -56.4331587494755 0.996360205307189 -56.4331587494754 0.00775546615526606 -90.8942814405404 
1.04             0.00567662778508307 171.350746365594 0.996257175691089 -58.6912633257249 0.996257175691198 -58.6912633257176 0.00789500334211809 -92.645708455962 
1.08             0.00566655060483147 167.843652269114 0.996147994351472 -60.9492260855164 0.996147994351807 -60.9492260855032 0.00800389631835429 -94.1150291404118 
1.12             0.00563888507511173 164.081165644464 0.996032950410024 -63.2070285090614 0.99603295041059 -63.2070285090438 0.00808680480712047 -95.2963356427606 
1.16             0.00559432413483391 160.039185904177 0.995912360227776 -65.4646542449291 0.995912360228573 -65.4646542449083 0.00814877382704334 -96.185782515939 
1.2              0.00553410401086109 155.688877220556 0.995786562532602 -67.7220891542572 0.995786562533627 -67.7220891542344 0.00819513920204782 -96.7817616306898 
1.24             0.00546013149604471 150.99647773328  0.995655913842172 -69.9793213247396 0.995655913843419 -69.9793213247159 0.00823145491187505 -97.0852611911069 
1.28             0.00537513606614251 145.923508989108 0.995520784203944 -72.2363410592191 0.995520784205404 -72.2363410591954 0.00826343341708164 -97.1003982869225 
1.32             0.00528284546626208 140.427745165153 0.995381553261274 -74.4931408432136 0.995381553262937 -74.4931408431908 0.00829688927466063 -96.835084614755 
1.36             0.00518817614754459 134.465478617489 0.995238606645318 -76.7497152951867 0.995238606647171 -76.7497152951655 0.00833767683499446 -96.3017488784152 
1.4              0.00509741646014142 127.995789859662 0.99509233268547 -79.0060611028707 0.9950923326875  -79.0060611028516 0.00839161459962692 -95.5180007948953 
1.44             0.00501835889552117 120.98756371836  0.994943119426337 -81.2621769484712 0.994943119428529 -81.2621769484548 0.00846439197179524 -94.5070894155018 
1.48             0.00496030925713191 113.429620435948 0.994791351936087 -83.5180634251515 0.994791351938426 -83.5180634251379 0.00856145853596986 -93.2979960786965 
1.52             0.00493387546405982 105.343182228137 0.994637409889259 -85.7737229468026 0.99463740989173 -85.773722946792 0.00868790117258807 -91.9250242972794 
1.56             0.00495044098610563 96.7938029837421 0.994481665406293 -88.029159652765 0.994481665408881 -88.0291596527575 0.0088483192771021 -90.4268138953362 
1.6              0.00502129140610741 87.8975383777932 0.994324481132011 -90.2843793088754 0.994324481134701 -90.284379308871 0.00904671178058389 -88.8448094181744 
1.64             0.00515650133543726 78.8155496797923 0.99416620853575 -92.5393892059575 0.994166208538528 -92.539389205956 0.00928639030954965 -87.2213299892294 
1.68             0.00536385155221191 69.7347891541134 0.994007186416688 -94.7941980566714 0.994007186419539 -94.7941980566725 0.00956993008667067 -85.5974835085916 
1.72             0.00564811368287839 60.8393896127314 0.993847739598943 -97.048815891459 0.993847739601853 -97.0488158914624 0.00989916455961358 -84.0112085356037 
1.76             0.00601092199008316 52.2830583881533 0.993688177802232 -99.3032539541832 0.993688177805191 -99.3032539541887 0.0102752227763125 -82.4956972389396 
1.8              0.00645120501804265 44.1721307962928 0.993528794675074 -101.557524597944 0.99352879467807 -101.557524597951 0.0106986021634382 -81.0783640440289 
1.84             0.00696594474074322 36.5625736127075 0.993369866978722 -103.811641181465 0.993369866981745 -103.811641181473 0.0111692652077093 -79.7804092218417 
1.88             0.00755098528956467 29.4676351163847 0.993211653911197 -106.065617966369 0.993211653914238 -106.065617966378 0.0116867472547197 -78.616921252167 
1.92             0.00820170118157123 22.8701915214078 0.993054396561851 -108.319470015613 0.993054396564901 -108.319470015621 0.0122502639036454 -77.5973918758208 
1.96             0.00891345657213608 16.7349311846788 0.992898317487881 -110.573213093306 0.992898317490934 -110.573213093314 0.0128588093380813 -76.7264909763702 
2                0.00968187184774057 11.0179332411262 0.992743620405118 -112.826863566106 0.992743620408167 -112.826863566113 0.0135112403166887 -76.0049574757235 
2.04             0.0105029484097781 5.67313669835009 0.992590489986188 -115.080438306369 0.992590489989231 -115.080438306375 0.014206343621433 -75.4304928179791 
2.08             0.0113731038451692 0.656180664808011 0.992439091759843 -117.333954597201 0.992439091762874 -117.333954597205 0.0149428870818612 -74.9985810968321 
2.12             0.0122891575266617 -4.07362940777278 0.992289572105833 -119.587430039576 0.992289572108849 -119.587430039577 0.0157196557595475 -74.7031944723364 
2.16             0.0132482928617802 -8.55254837124006 0.992142058340216 -121.840882461643 0.992142058343216 -121.840882461641 0.0165354756013046 -74.5373692775717 
2.2              0.014248011511128 -12.8123089080129 0.991996658886398 -124.094329830377 0.99199665888938 -124.094329830371 0.0173892270555202 -74.4936560776059 
2.24             0.0152860876250254 -16.8803996038305 0.991853463527538 -126.347790165697 0.991853463530503 -126.347790165688 0.0182798509977168 -74.5644570764882 
2.28             0.0163605257790939 -20.7805027416803 0.991712543736245 -128.601281457204 0.991712543739191 -128.601281457191 0.0192063489934103 -74.7422686794043 
2.32             0.0174695238760219 -24.5329778022818 0.991573953077655 -130.854821583658 0.991573953080585 -130.85482158364 0.0201677795514825 -75.0198477075773 
2.36             0.0186114410594793 -28.1553307159051 0.991437727682204 -133.108428235347 0.991437727685119 -133.108428235324 0.0211632516570778 -75.3903183440077 
2.4              0.0197847701420644 -31.6626407773691 0.991303886784434 -135.362118839484 0.991303886787334 -135.362118839457 0.022191916553447 -75.847234491254 
2.44             0.0209881138660133 -35.0679350014984 0.991172433324309 -137.615910488773 0.991172433327198 -137.61591048874 0.0232529584794074 -76.3846095602613 
2.48             0.0222201643107169 -38.3825091450161 0.991043354607496 -139.869819873275 0.991043354610377 -139.869819873236 0.024345584862934 -76.9969231796573 
2.52             0.0234796848347613 -41.6161992019943 0.990916623021093 -142.123863215727 0.990916623023967 -142.123863215684 0.0254690163154871 -77.6791121058164 
2.56             0.024765494040071 -44.777609050308 0.990792196801234 -144.378056210447 0.990792196804104 -144.378056210398 0.0266224766574468 -78.4265507854522 
2.6              0.0260764513463931 -47.8743003546124 0.990670020848984 -146.632413965942 0.990670020851853 -146.632413965887 0.0278051831238378 -79.2350255646447 
2.64             0.027411443854774 -50.9129505427199 0.990550027590839 -148.886950951383 0.990550027593709 -148.886950951323 0.0290163368436915 -80.1007054079736 
2.68             0.0287693742552485 -53.8994840699601 0.990432137880083 -151.14168094704 0.990432137882956 -151.141680946975 0.0302551136495278 -81.0201111344415 
2.72             0.0301491495966057 -56.8391814860103 0.990316261935168 -153.396616998813 0.990316261938047 -153.396616998744 0.0315206552504868 -81.9900845390621 
2.76             0.0315496707863337 -59.7367701301452 0.990202300311176 -155.651771376971 0.990202300314064 -155.651771376897 0.0328120607896904 -83.0077583021899 
2.8              0.0329698227286456 -62.5964996541201 0.990090144900331 -157.907155539192 0.990090144903229 -157.907155539113 0.0341283788005433 -84.0705272525083 
2.84             0.0344084650398541 -65.4222050252821 0.989979679957419 -160.162780098011 0.989979679960328 -160.162780097928 0.0354685995756906 -85.1760213115783 
2.88             0.0358644233050511 -68.2173591979228 0.989870783145894 -162.418654792753 0.989870783148815 -162.418654792667 0.0368316479646431 -86.3220802825345 
2.92             0.0373364808595284 -70.985117252426 0.98976332660033 -164.674788466024 0.989763326603264 -164.674788465934 0.0382163766204548 -87.5067305334058 
2.96             0.0388233710938219 -73.7283534803775 0.989657178000811 -166.931189044817 0.989657178003757 -166.931189044725 0.0396215597214375 -88.728163551882 
3                0.040323770293568 -76.4496926297185 0.98955220165475 -169.187863526289 0.989552201657708 -169.187863526194 0.0410458872000324 -89.984716302178 
3.04             0.0418362910351922 -79.1515363079879 0.989448259581585 -171.44481796823 0.989448259584554 -171.444817968133 0.0424879595171511 -91.2748532878415 
3.08             0.0433594761662847 -81.8360853654205 0.98934521259572 -173.702057484248 0.9893452125987  -173.702057484149 0.0439462830261122 -92.597150210977 
3.12             0.044891793405665 -84.5053589360456 0.989242921383045 -175.959586243672 0.989242921386033 -175.959586243572 0.0454192659754217 -93.9502791141143 
3.16             0.0464316306028073 -87.161210697968 0.989141247566339 -178.217407476154 0.989141247569333 -178.217407476053 0.0469052152037703 -95.3329948927201 
3.2              0.0479772916995762 -89.8053428187371 0.989040054754861 179.524476519059 0.989040054757856 179.52447651916  0.0484023335835031 -96.7441230719225 
3.24             0.0495269934391591 -92.4393179740429 0.98893920957341 177.266064359226 0.988939209576403 177.266064359327 0.0499087182702256 -98.1825487488045 
3.28             0.051078862867643 -95.0645697645612 0.988838582666216 175.007355559669 0.988838582669203 175.007355559769 0.0514223598159386 -99.6472066105204 
3.32             0.0526309356728452 -97.6824118038939 0.988738049671004 172.748350510849 0.988738049673981 172.748350510947 0.0529411422009772 -101.137071947713 
3.36             0.0541811554026798 -100.294045707983 0.988637492158707 170.489050451076 0.988637492161668 170.489050451173 0.0544628438359109 -102.65115259173 
3.4              0.0557273736014991 -102.90056818133 0.988536798534339 168.229457434982 0.98853679853728 168.229457435077 0.0559851395783531 -104.188481712599 
3.44             0.057267350897406 -105.502977366355 0.988435864894713 165.969574297869 0.988435864897627 165.969574297961 0.0575056038012688 -105.748111422349 
3.48             0.0587987590664962 -108.102178598071 0.988334595838745 163.709404616115 0.988334595841625 163.709404616205 0.0590217145388614 -107.329107134961 
3.52             0.0603191840913536 -110.698989686029 0.988232905226337 161.448952663809 0.988232905229178 161.448952663894 0.0605308587235494 -108.930542639876 
3.56             0.0618261302209467 -113.294145828302 0.988130716881944 159.188223365782 0.988130716884737 159.188223365864 0.0620303385130356 -110.551495850497 
3.6              0.0633170250274648 -115.888304247655 0.988027965239146 156.927222247283 0.988027965241886 156.927222247361 0.0635173786902745 -112.191045192611 
3.64             0.0647892254427621 -118.482048627291 0.987924595922827 154.665955380488 0.987924595925506 154.665955380562 0.064989135101545 -113.848266600015 
3.68             0.0662400247431464 -121.075893412443 0.987820566265728 152.404429328109 0.987820566268339 152.404429328178 0.0664427040792433 -115.522231085988 
3.72             0.0676666604365677 -123.670288034142 0.987715845756478 150.142651084335 0.987715845759014 150.1426510844   0.0678751327768699 -117.212002859659 
3.76             0.0690663229911353 -126.265621102565 0.987610416416465 147.880628013407 0.987610416418918 147.880628013467 0.0692834303245372 -118.916637955865 
3.8              0.0704361653287338 -128.862224609221 0.987504273103225 145.618367786066 0.987504273105589 145.618367786122 0.0706645796947475 -120.635183345857 
3.84             0.0717733129927221 -131.460378169776 0.987397423738352 143.355878314213 0.987397423740619 143.355878314264 0.0720155501507855 -122.366676494359 
3.88             0.0730748748847517 -134.060313332431 0.987289889458262 141.093167684048 0.987289889460426 141.093167684094 0.0733333101344657 -124.110145326084 
3.92             0.0743379544530766 -136.662217970389 0.987181704686529 138.83024408803  0.987181704688584 138.830244088071 0.0746148404367654 -125.864608562078 
3.96             0.0755596612038226 -139.266240771152 0.987072917126836 136.567115755959 0.987072917128774 136.567115755995 0.0758571474846141 -127.629076383223 
4                0.0767371223979395 -141.872495830026 0.986963587676001 134.303790885526 0.986963587677817 134.303790885557 0.0770572765702896 -129.40255137518 
4.04             0.0778674947903842 -144.481067350488 0.986853790256893 132.040277572649 0.986853790258583 132.040277572676 0.0782123248468639 -131.184029705952 
4.08             0.0789479762647708 -147.092014449919 0.986743611571482 129.776583741949 0.98674361157304 129.776583741971 0.0793194539142273 -132.972502484401 
4.12             0.0799758172165252 -149.705376065668 0.986633150774615 127.512717077686 0.986633150776038 127.512717077704 0.080375901825511 -134.766957245401 
4.16             0.0809483315406296 -152.32117595371 0.986522519069562 125.248684955516 0.986522519070846 125.24868495553  0.0813789943532246 -136.566379505095 
4.2              0.0818629070863782 -154.93942777011 0.986411839226741 122.984494375388 0.986411839227883 122.984494375398 0.0823261553679381 -138.369754327889 
4.24             0.0827170154511025 -157.560140224416 0.986301245027445 120.720151895932 0.986301245028443 120.720151895939 0.083214916199566 -140.176067845496 
4.28             0.0835082209974054 -160.183322293854 0.986190880634783 118.455663570664 0.986190880635635 118.455663570668 0.0840429238718042 -141.984308667465 
4.32             0.084234188993744 -162.808988487937 0.986080899894443 116.191034886327 0.98608089989515 116.191034886329 0.0848079481234504 -143.793469122235 
4.36             0.0848926927958865 -165.437164154856 0.985971465568262 113.926270703696 0.985971465568823 113.926270703695 0.0855078871555828 -145.602546267721 
4.4              0.0854816200063451 -168.067890823782 0.985862748503956 111.661375201147 0.985862748504374 111.661375201144 0.0861407720701375 -147.410542610722 
4.44             0.0859989775698735 -170.701231581098 0.985754926744751 109.396351821293 0.985754926745028 109.396351821289 0.0867047699926155 -149.216466474864 
4.48             0.0864428957849561 -173.337276483573 0.985648184582951 107.131203220965 0.98564818458309 107.13120322096  0.0871981858987078 -151.019331957257 
4.52             0.0868116312333571 -175.976148017612 0.9855427115619  104.865931224807 0.985542711561902 104.865931224801 0.0876194631909038 -152.818158414276 
4.56             0.0871035686517092 -178.618006621108 0.985438701431003 102.600536782746 0.985438701430875 102.60053678274  0.0879671830960056 -154.611969416748 
4.6              0.0873172217902989 178.736943706971 0.985336351058894 100.335019931565 0.985336351058642 100.335019931559 0.0882400629774259 -156.399791113993 
4.64             0.0874512333242188 176.088449674087 0.985235859310028 98.0693797607915 0.985235859309658 98.069379760786  0.0884369536767814 -158.180649944477 
4.68             0.0875043739005426 173.436202792038 0.985137425890298 95.8036143831079 0.985137425889815 95.8036143831031 0.0885568360173638 -159.953569627839 
4.72             0.0874755404218778 170.779833245292 0.985041250167489 93.5377209094467 0.9850412501669  93.537720909443  0.0885988166174393 -161.717567368551 
4.76             0.0873637536813965 168.118903454555 0.984947529972637 91.2716954289188 0.984947529971951 91.2716954289163 0.0885621231740197 -163.471649195008 
4.8              0.0871681554771989 165.452901242794 0.984856460388541 89.0055329936994 0.984856460387768 89.0055329936983 0.0884460993879099 -165.214804349041 
4.84             0.0868880053446914 162.781232490467 0.984768232531856 86.7392276089621 0.984768232531007 86.7392276089626 0.0882501997087649 -166.945998629197 
4.88             0.0865226770547497 160.103213142893 0.984683032335351 84.4727722279271 0.984683032334431 84.4727722279292 0.0879739840849801 -168.664166576124 
4.92             0.0860716550331006 157.418060404435 0.984601039337043 82.2061587520546 0.984601039336064 82.2061587520584 0.0876171129080279 -170.368202369319 
4.96             0.0855345308630264 154.724882920685 0.984522425483005 79.9393780363822 0.984522425481976 79.9393780363876 0.0871793423449702 -172.056949280671 
5                0.0849110000397299 152.022669709511 0.984447353950728 77.6724198999698 0.984447353949662 77.6724198999767 0.0866605202570576 -173.729187500561 
5.04             0.0842008591511996 149.310277553009 0.984375977999908 75.4052731413778 0.984375977998813 75.4052731413859 0.0860605829074265 -175.383620115778 
5.08             0.0834040036680355 146.58641650276  0.98430843985754 73.1379255590627 0.984308439856423 73.1379255590718 0.0853795526678929 -177.018856973663 
5.12             0.0825204265344773 143.849633077345 0.984244869644143 70.8703639765343 0.984244869643014 70.870363976544  0.0846175369448264 -178.633396111966 
5.16             0.0815502177660943 141.098290639962 0.984185384347834 68.6025742720689 0.984185384346702 68.6025742720786 0.0837747285583692 179.774397633241 
5.2              0.0804935652778267 138.330546330301 0.984130086852747 66.3345414127299 0.984130086851619 66.3345414127392 0.0828514078293728 178.206317311301 
5.24             0.0793507571912869 135.544323781938 0.984079065028129 64.0662494923905 0.98407906502701 64.0662494923986 0.0818479466561836 176.664342402364 
5.28             0.0781221859049809 132.73728067601  0.984032390884047 61.797681773401  0.984032390882941 61.7976817734072 0.0807648149011008 175.150671917013 
5.32             0.0768083542586588 129.906769952549 0.983990119799263 59.5288207314829 0.983990119798175 59.5288207314863 0.0796025894567437 173.667762892615 
5.36             0.0754098841877199 127.049793207893 0.983952289826254 57.2596481033697 0.983952289825182 57.2596481033694 0.0783619664292958 172.218375312229 
5.4              0.0739275283512587 124.162944430459 0.983918921077683 54.9901449366479 0.983918921076626 54.9901449366429 0.0770437769631886 170.805624695808 
5.44             0.072362185335838 121.242341742079 0.983890015197784 52.7202916411787 0.98389001519674 52.7202916411677 0.0756490073461744 169.433043886623 
5.48             0.0707149191971852 118.283544183541 0.983865554921016 50.4500680414077 0.983865554919978 50.4500680413897 0.0741788241825737 168.104655887682 
5.52             0.0689869843186439 115.281449765436 0.983845503719063 48.17945342879   0.983845503718019 48.1794534287637 0.0726346056157692 166.825060003729 
5.56             0.0671798568591661 112.230169938315 0.983829805535632 45.9084266134753 0.983829805534569 45.9084266134394 0.0710179798317514 165.599534023613 
5.6              0.0652952744641068 109.122874240182 0.983818384606539 43.6369659743126 0.983818384605443 43.6369659742656 0.0693308724005624 164.434155741765 
5.64             0.0633352864603472 105.951597051103 0.983811145360154 41.3650495061496 0.983811145359001 41.3650495060904 0.0675755644334985 163.335947764474 
5.68             0.0613023175119293 102.706995993403 0.983807972390349 39.0926548633192 0.983807972389113 39.0926548632464 0.0657547640783772 162.313050257646 
5.72             0.0591992487568852 99.3780484020386 0.983808730490619 36.8197593981207 0.983808730489269 36.819759398033  0.0638716945769261 161.374927015511 
5.76             0.0570295218992138 95.9516682748306 0.983813264733706 34.5463401930458 0.983813264732206 34.546340192942  0.0619302030075119 160.532610849407 
5.8              0.0547972737607644 92.4122210318217 0.983821400576043 32.2723740854367 0.983821400574353 32.2723740853158 0.0599348949766551 159.798994584894 
5.84             0.0525075116432159 88.7409072052718 0.983832943960153 29.9978376832491 0.983832943958228 29.9978376831099 0.0578913019437086 159.189173487147 
5.88             0.050166343835991 84.9149790954346 0.983847681381008 27.7227073706031 0.983847681378793 27.722707370445  0.0558060895823273 158.720842938159 
5.92             0.047781285159525 80.9067474853409 0.983865379873751 25.4469593018827 0.983865379871189 25.4469593017052 0.0536873175572211 158.414750312428 
5.96             0.045361665065824 76.6823315001585 0.983885786870376 23.1705693832957 0.983885786867404 23.1705693830984 0.0515447631456439 158.295189935223 
6                0.0429191760061528 72.200110243031  0.983908629861432 20.8935132410737 0.983908629857981 20.893513240857  0.049390322798067 158.390510956946 
6.04             0.0404686125807321 67.4088645292121 0.983933615785909 18.6157661759064 0.983933615781903 18.6157661756708 0.0472385060029563 158.733573948267 
6.08             0.0380288660366588 62.2456813240767 0.983960430057996 16.3373031038118 0.983960430053358 16.3373031035586 0.0451070326928663 159.36203423604  
6.12             0.035624248715095 56.6338923628333 0.983988735123721 14.0580984845191 0.983988735118367 14.0580984842502 0.0430175352143161 160.318237212501 
6.16             0.0332862144899833 50.4817405481997 0.984018168424125 11.7781262396341 0.984018168417969 11.7781262393518 0.0409963423358872 161.648372739468 
6.2              0.0310554796555945 43.6832807596233 0.984048339625489 9.49735966446796 0.984048339618445 9.49735966417582 0.0390752765020698 163.400354052699 
6.24             0.0289843639102902 36.1243914520227 0.984078826962626 7.21577133953537 0.984078826954607 7.21577133923751 0.0372923152660786 165.619701470477 
6.28             0.027138748876577 27.6985510177328 0.984109172530733 4.93333305044841 0.984109172521657 4.93333305015017 0.0356918469336667 168.342649495037 
6.32             0.0255982906828549 18.3378761187808 0.984138876357873 2.65001572836618 0.98413887634766 2.65001572807372 0.0343241043759689 171.58602532296  
6.36             0.0244525904598751 8.06096953737633 0.984167389098329 0.365789427366632 0.98416738908691 0.365789427087416 0.033243257707154 175.334554336981 
6.4              0.0237908738538261 -2.97504855667056 0.984194103212937 -1.91937663989051 0.984194103200258 -1.91937664014779 0.0325037316846359 179.528357510764 
6.44             0.0236851762166605 -14.4526961627699 0.984218342553602 -4.20551398110033 0.984218342539625 -4.20551398132604 0.0321547682835798 -175.944096031789 
6.48             0.0241725662452128 -25.9409632924837 0.984239350354995 -6.49265458448841 0.984239350339705 -6.49265458467196 0.0322341095244288 -171.241459557332 
6.52             0.0252460475131264 -37.0068280854357 0.984256275767603 -8.78083052052498 0.984256275751012 -8.7808305206545 0.0327625555852768 -166.550539106477 
6.56             0.0268598526708167 -47.3280117420077 0.984268159253768 -11.0700733398086 0.984268159235926 -11.0700733398716 0.0337413295532387 -162.057174367332 
6.6              0.0289450628015548 -56.7422744464358 0.984273917421708 -13.3604132178886 0.984273917402702 -13.360413217872 0.0351532147722569 -157.917473564521 
6.64             0.0314262346898741 -65.2272488489994 0.984272328196494 -15.6518777973865 0.98427232817646 -15.6518777972773 0.0369668343259139 -154.239676349902 
6.68             0.0342327267533467 -72.8487315322928 0.984262017617381 -17.9444906829353 0.984262017596502 -17.9444906827208 0.0391423263312401 -151.080463458403 
6.72             0.0373038417214999 -79.7124016634033 0.984241449988233 -20.2382695577232 0.984241449966747 -20.2382695573921 0.0416366488473554 -148.452516755044 
6.76             0.040589751427956 -85.9322308752199 0.984208923550729 -22.5332239144728 0.984208923528924 -22.5332239140158 0.0444074963763585 -146.337162255422 
6.8              0.0440503710700272 -91.6143056926443 0.984162574229248 -24.8293524307382 0.984162574207463 -24.8293524301481 0.0474156326057842 -144.696964304416 
6.84             0.0476535817524236 -96.8505884119797 0.984100390211534 -27.1266400694373 0.984100390190154 -27.126640068711 0.0506259346152413 -143.485657161231 
6.88             0.0513734788453599 -101.717908807951 0.984020240054021 -29.4250550491075 0.984020240033458 -29.4250550482462 0.0540075851961266 -142.654853949196 
6.92             0.0551888925458034 -106.279257481697 0.983919916498315 -31.7245458993856 0.983919916478997 -31.7245458983952 0.0575337935554811 -142.158022906561 
6.96             0.0590822231251574 -110.585839882253 0.983797197140168 -34.0250388860467 0.983797197122513 -34.0250388849391 0.0611813076283394 -141.952516233366 
7                0.0630385553758707 -114.679178623151 0.983649921454855 -36.3264361423216 0.983649921439252 -36.3264361411141 0.0649298743641603 -142.000361648816 
7.04             0.067044996786099 -118.592983378812 0.98347608152201 -38.6286148618116 0.98347608150879 -38.6286148605268 0.0687617288037969 -142.268339434916 
7.08             0.071090186669808 -122.354711621255 0.983273921337215 -40.931427876187 0.983273921326629 -40.9314278748519 0.0726611465292653 -142.727688093151 
7.12             0.075163932980543 -125.986830251239 0.98304203724341 -43.2347058466107 0.983042037235599 -43.2347058452558 0.0766140686932389 -143.353646529787 
7.16             0.0792569435533698 -129.507819018187 0.982779470278697 -45.5382611416112 0.982779470273688 -45.5382611402684 0.0806077963766251 -144.124950347173 
7.2              0.0833606269983126 -132.932962652584 0.982485780642608 -47.841893271683 0.982485780640298 -47.841893270384 0.0846307458484916 -145.023343770533 
7.24             0.0874669450469919 -136.274974799145 0.982161095405405 -50.1453955339611 0.982161095405574 -50.1453955327351 0.0886722549161509 -146.033135835386 
7.28             0.0915683030513511 -139.544489933253 0.981806123097917 -52.4485623310881 0.981806123100241 -52.4485623299604 0.0927224309568844 -147.140811097796 
7.32             0.0956574689060997 -142.750452338964 0.981422132609094 -54.7511965091263 0.981422132613167 -54.7511965081163 0.096772032347823 -148.334695470416 
7.36             0.0997275132498665 -145.900424984153 0.981010898220017 -57.0531160397934 0.981010898225382 -57.0531160389142 0.100812376321602 -149.604673138769 
7.4              0.103771765663725 -149.000836011536 0.980574616760814 -59.3541594597828 0.980574616766998 -59.3541594590404 0.104835267527335 -150.94194864005 
7.44             0.10778378293265 -152.057176517189 0.980115805981597 -61.6541896564465 0.98011580598814 -61.6541896558403 0.108832942673971 -152.338847783034 
7.48             0.111757326413312 -155.074160147912 0.979637194743198 -63.9530958165464 0.979637194749689 -63.9530958160697 0.112798027553975 -153.788651407874 
7.52             0.115686346266065 -158.055852636485 0.979141615422679 -66.2507935864327 0.979141615428764 -66.2507935860741 0.116723503499941 -155.2854566173  
7.56             0.119564970835203 -161.005777549441 0.978631907251458 -68.5472236858323 0.978631907256864 -68.5472236855769 0.120602680937591 -156.824060837261 
7.6              0.123387499852574 -163.927003113452 0.978110836690175 -70.8423493459478 0.978110836694714 -70.8423493457786 0.12442917819037 -158.399864775367 
7.64             0.127148400433191 -166.822213909857 0.977581038012321 -73.136152996966 0.977581038015889 -73.1361529968651 0.128196904086328 -160.008790989934 
7.68             0.130842305054296 -169.693770402005 0.977044974561153 -75.4286326180055 0.977044974563722 -75.4286326179556 0.13190004323651 -161.647215343381 
7.72             0.134464010880427 -172.543758626111 0.976504919023564 -77.7197981022865 0.976504919025174 -77.7197981022714 0.135533043111412 -163.311909090096 
7.76             0.138008479930155 -175.374031887016 0.975962949686194 -80.00966790375  0.97596294968694 -80.0096679037557 0.139090602250667 -164.999989747246 
7.8              0.141470839684932 -178.186245921146 0.975420958983043 -82.2982661383345 0.975420958983063 -82.298266138349 0.142567659110807 -166.708879226836 
7.84             0.14484638382421 179.01811130628  0.974880670577334 -84.5856202281852 0.974880670576797 -84.5856202281993 0.145959381194128 -168.436267978871 
7.88             0.148130572838634 176.237694233551 0.974343661562476 -86.8717591085835 0.974343661561568 -86.8717591085907 0.149261154214457 -170.180084118139 
7.92             0.151319034328496 173.471278009504 0.973811386938654 -89.156711968277 0.973811386937565 -89.1567119682731 0.152468571147295 -171.938466689374 
7.96             0.154407562840526 170.717739863736 0.973285204176959 -91.440507463258 0.973285204175884 -91.4405074632411 0.155577421086198 -173.709742374655 
8                0.157392119134518 167.976043042088 0.972766396318519 -93.7231733287736 0.972766396317643 -93.7231733287438 0.158583677887103 -175.492405068737 
8.04             0.160268828803721 165.245222900031 0.972256192611634 -96.0047363105446 0.972256192611133 -96.0047363105039 0.161483488629913 -177.285097847729 
8.08             0.163033980200618 162.524374819144 0.971755786137936 -98.2852223400099 0.97175578613797 -98.2852223399615 0.164273161964015 -179.086596938111 
8.12             0.165684021643426 159.812643670165 0.971266348215748 -100.564656886694 0.97126634821646 -100.564656886642 0.166949156433015 179.10420264011  
8.16             0.168215557899175 157.109214593286 0.970789039605405 -102.843065431094 0.970789039606913 -102.843065431045 0.169508068895233 177.288300027545 
8.2              0.170625345957026 154.413304904583 0.970325018694152 -105.120474012127 0.970325018696566 -105.120474012085 0.171946623171567 175.466600303451 
8.24             0.172910290121097 151.724156968711 0.969875446926526 -107.396909813152 0.969875446929929 -107.396909813124 0.17426165906222 173.639925277433 
8.28             0.175067436465773 149.041031903542 0.969441491786582 -109.672401759335 0.969441491791044 -109.672401759329 0.176450121879301 171.809023454454 