! Touchstone file from project TestMultiLine
! Exported from HFSS 14.0.0
! Variables:
!  gap = 14.38mm
!  hair = 35mm
!  hsub = 0.762mm
!  l = 42.38mm
!  lair = 50mm
!  lmic = 14mm
!  w = 25mm
!  wair = 40mm
!  wmic = 2.1mm
!  wp = 1mm
!Data is not renormalized
# GHZ S MA
! Modal data exported
! Port[1] = 1:1
! Port[2] = 2:1
1                0.00290916368898152 86.1260897911212 0.994862737190832 -75.5744650509483 0.994862737191051 -75.5744650509483 0.00673580235375136 -68.1001965528237 
1.04             0.00305389202959269 75.5406989406506 0.994693571686209 -78.5944126137001 0.994693571685457 -78.5944126137012 0.00730449317298649 -67.8329561185932 
1.08             0.00328087766612012 65.1668141556016 0.994521651503244 -81.6141049972008 0.994521651501518 -81.6141049972029 0.00789847330713486 -67.7256726386243 
1.12             0.00359401103500299 55.3533040577874 0.994347309843764 -84.6335491203693 0.994347309841066 -84.6335491203725 0.00851746531216492 -67.7607825080812 
1.16             0.00399320636513273 46.3064232792126 0.994170874502826 -87.6527531355523 0.994170874499162 -87.6527531355566 0.00916117523808179 -67.9236906086335 
1.2              0.00447597597418405 38.0896926690496 0.99399266669913 -90.6717263736736 0.993992666694511 -90.6717263736788 0.00982927114581188 -68.2022795148005 
1.24             0.00503891845479278 30.6658307210571 0.993812999981896 -93.6904792833664 0.993812999976334 -93.6904792833725 0.0105213588578539 -68.5865207969072 
1.28             0.00567867314368648 23.9448515785689 0.993632179220188 -96.7090233645805 0.9936321792137  -96.7090233645875 0.0112369529160691 -69.0681722514678 
1.32             0.00639234689507238 17.8194112180009 0.993450499680011 -99.7273710971909 0.993450499672618 -99.7273710971986 0.0119754399522751 -69.6405485357388 
1.36             0.00717759588912468 12.1848614238054 0.993268246193797 -102.745535865169 0.993268246185523 -102.745535865178 0.0127360303949114 -70.2983565875953 
1.4              0.00803253430638676 6.94822364663413 0.993085692426137 -105.763531876909 0.99308569241701 -105.763531876918 0.0135176922901029 -71.0375913047073 
1.44             0.00895557811943775 2.030810979501   0.992903100238887 -108.781374082321 0.992903100228938 -108.781374082331 0.0143190573742717 -71.8554914228482 
1.48             0.00994527891801258 -2.63221789392871 0.992720719157953 -111.799078087337 0.992720719147217 -111.799078087346 0.0151382832062851 -72.7505607093888 
1.52             0.0110001710841787 -7.09351289373746 0.992538785943287 -114.816660066473 0.992538785931801 -114.816660066483 0.01597284382985 -73.7226658310096 
1.56             0.0121186401246517 -11.3954729873198 0.992357524262779 -117.834136674131 0.992357524250585 -117.83413667414 0.0168192003970072 -74.7732295172623 
1.6              0.0132988134937088 -15.5720721588534 0.992177144469936 -120.851524955299 0.992177144457077 -120.851524955308 0.0176722625262212 -75.9055439545466 
1.64             0.0145384731147522 -19.6504308690904 0.991997843484371 -123.868842256348 0.991997843470895 -123.868842256357 0.0185244689414889 -77.1252254017491 
1.68             0.015834988497284 -23.6521118601152 0.991819804773333 -126.886106136588 0.991819804759289 -126.886106136596 0.0193641410052836 -78.440780540168 
1.72             0.0171852696217572 -27.5941670039054 0.99164319843165 -129.903334281267 0.991643198417091 -129.903334281273 0.020172369643108 -79.864020091159 
1.76             0.0185857390810611 -31.4899764652327 0.991468181356678 -132.920544416673 0.991468181341658 -132.920544416678 0.0209167627974104 -81.4090895449584 
1.8              0.0200323231071093 -35.3499216312433 0.991294897514012 -135.937754227985 0.991294897498588 -135.937754227989 0.021538072050281 -83.0848455799433 
1.84             0.0215204610118843 -39.1819280196296 0.991123478288969 -138.954981280497 0.9911234782732  -138.9549812805  0.0219201921335053 -84.8569318165794 
1.88             0.0230451322465638 -42.9919077449323 0.990954042918079 -141.972242944824 0.990954042902025 -141.972242944825 0.0218266234386259 -86.4621921819044 
1.92             0.0246008997807209 -46.7841247677193 0.990786698994095 -144.989556326649 0.990786698977819 -144.989556326648 0.0208684875456427 -86.4614038040185 
1.96             0.026181967898009 -50.5615006619515 0.990621543037373 -148.00693820156 0.990621543020937 -148.006938201557 0.0197593148914853 -79.3316342044639 
2                0.027782251877847 -54.3258741324435 0.990458661125772 -151.024404955462 0.99045866110924 -151.024404955457 0.0235549986529144 -69.5943228481731 
2.04             0.0293954564684022 -58.0782239355826 0.99029812957469 -154.041972531027 0.990298129558128 -154.041972531019 0.0288273597530939 -72.6451701177403 
2.08             0.0310151596307652 -61.818862084456 0.990140015658245 -157.059656380572 0.990140015641717 -157.059656380562 0.0316920016781921 -77.8049222964374 
2.12             0.0326348978069816 -65.5476021300245 0.989984378362153 -160.07747142573 0.989984378345725 -160.077471425718 0.0334542663430714 -81.8131318209329 
2.16             0.0342482489709905 -69.2639057888742 0.989831269158428 -163.095432024201 0.989831269142163 -163.095432024185 0.0348584746997518 -84.9566692374531 
2.2              0.0358489099689529 -72.9670101338759 0.98968073279164 -166.113551943808 0.989680732775604 -166.11355194379 0.0361446471352689 -87.6029976452952 
2.24             0.037430765123227 -76.6560368859134 0.989532808066237 -169.131844344051 0.989532808050493 -169.131844344031 0.0373915372376362 -89.9642452440524 
2.28             0.0389879437174634 -80.3300849601887 0.989387528624167 -172.150321765233 0.989387528608779 -172.15032176521 0.0386263295783777 -92.158045087941 
2.32             0.0405148647371363 -83.9883072541748 0.989244923701985 -175.168996125208 0.989244923687014 -175.168996125182 0.0398579586610726 -94.2521835466496 
2.36             0.0420062680407792 -87.6299726483089 0.989105018856542 -178.187878723711 0.989105018842046 -178.187878723683 0.0410881889491349 -96.287649597591 
2.4              0.0434572319144687 -91.2545142658223 0.988967836648459 178.793019745854 0.988967836634497 178.793019745885 0.0423156748110065 -98.290342356308 
2.44             0.0448631776577525 -94.8615651555533 0.988833397272747 175.773689177352 0.988833397259372 175.773689177385 0.04353757488349 -100.277237878162 
2.48             0.0462198624207382 -98.4509826830059 0.98870171912616 172.754120025842 0.988701719113426 172.754120025877 0.0447502370668981 -102.259788100265 
2.52             0.0475233619349757 -102.022863013423 0.988572819301311 169.734303274837 0.988572819289266 169.734303274874 0.0459495046576483 -104.245877764254 
2.56             0.0487700450483624 -105.577547130035 0.988446713997995 166.714230397326 0.988446713986686 166.714230397365 0.0471308598166695 -106.240996002338 
2.6              0.0499565420950532 -109.11561984407 0.98832341884278 163.693893311029 0.98832341883225 163.693893311069 0.0482894951141829 -108.24896197986 
2.64             0.0510797091249557 -112.637903221193 0.988202949108641 160.673284328481 0.988202949098929 160.673284328522 0.0494203534457309 -110.272387531693 
2.68             0.0521365899102674 -116.145445777683 0.988085319827181 157.652396102568 0.988085319818322 157.652396102609 0.0505181550990242 -112.312979330749 
2.72             0.0531243774675819 -119.63950869819 0.987970545786948 154.631221568225 0.987970545778972 154.631221568267 0.051577421092   -114.371740145657 
2.76             0.0540403766113172 -123.121550205901 0.987858641412351 151.609753881084 0.987858641405287 151.609753881125 0.0525924973570502 -116.449104908793 
2.8              0.054881968812115 -126.593209086239 0.987749620518849 148.587986353884 0.987749620512716 148.587986353924 0.0535575821015467 -118.5450336441  
2.84             0.055646580392119 -130.056288236607 0.987643495941274 145.565912391557 0.987643495936091 145.565912391597 0.0544667575001415 -120.659075214042 
2.88             0.0563316548620119 -133.512738995536 0.987540279033556 142.543525425916 0.987540279029336 142.543525425955 0.0553140262101092 -122.790410915321 
2.92             0.0569346300015825 -136.964646901643 0.987439979039472 139.520818850932 0.987439979036222 139.520818850968 0.0560933527850161 -124.937883861674 
2.96             0.0574529201111588 -140.414219451206 0.98734260233562 136.497785959618 0.987342602333344 136.497785959652 0.0567987097696176 -127.100018095484 
3                0.057883903716625 -143.863776366847 0.98724815154937 133.474419883576 0.987248151548065 133.474419883607 0.057424128031794 -129.275030037646 
3.04             0.0582249168945251 -147.315742861931 0.987156624556231 130.450713536255 0.98715662455589 130.450713536283 0.0579637507003863 -131.460833961223 
3.08             0.0584732522928401 -150.772646388523 0.987068013362785 127.426659561017 0.987068013363396 127.426659561041 0.0584118899230337 -133.655042502742 
3.12             0.0586261638535139 -154.23711739428 0.986982302883124 124.402250285063 0.98698230288467 124.402250285084 0.0587630855366462 -135.854962707437 
3.16             0.0586808771906563 -157.71189468941 0.986899469618505 121.377477680305 0.986899469620967 121.377477680321 0.0590121646607192 -138.057587677607 
3.2              0.0586346055400224 -161.199836144384 0.986819480251818 118.352333332197 0.986819480255167 118.352333332209 0.0591543011881117 -140.259583513249 
3.24             0.0584845711682537 -164.703935610776 0.986742290170232 115.326808417565 0.986742290174438 115.326808417572 0.0591850741673524 -142.457270869652 
3.28             0.0582280321132524 -168.227347193182 0.9866678419313  112.300893692353 0.98666784193633 112.300893692354 0.0591005241525099 -144.646600082264 
3.32             0.0578623141205299 -171.773418317028 0.986596063689528 109.27457949022  0.986596063695343 109.274579490216 0.0588972067473368 -146.823118401783 
3.36             0.0573848476472886 -175.345733459903 0.986526867602231 106.247855732789 0.986526867608788 106.24785573278  0.0585722427944572 -148.981927417863 
3.4              0.0567932098320464 -178.948170978345 0.986460148235173 103.220711952296 0.986460148242426 103.220711952281 0.0581233649612937 -151.117628200423 
3.44             0.0560851713821728 177.415023781419 0.986395780990122 100.193137327272 0.986395780998023 100.193137327251 0.0575489608554492 -153.224251019292 
3.48             0.0552587484289274 173.739144878398 0.986333620577926 97.1651207317884 0.986333620586425 97.1651207317626 0.0568481132678541 -155.295165672495 
3.52             0.0543122595602773 170.0189060745   0.986273499562146 94.1366507986573 0.986273499571186 94.1366507986262 0.0560206387002817 -157.322967405646 
3.56             0.0532443884960402 166.248287515713 0.98621522699943 91.1077159968414 0.98621522700896 91.1077159968052 0.055067125999824 -159.299332069185 
3.6              0.0520542532616569 162.420338613433 0.986158587203953 88.0783047231787 0.986158587213915 88.0783047231377 0.0539889777227525 -161.214832448793 
3.64             0.050741483310743 158.526923200424 0.986103338663939 85.0484054083554 0.986103338674275 85.0484054083098 0.0527884578268966 -163.058705512685 
3.68             0.0493063069393405 154.558387725445 0.986049213139023 82.0180066368818 0.986049213149673 82.0180066368322 0.0514687505124062 -164.818557532442 
3.72             0.0477496526741966 150.503125639652 0.985995914967392 78.9870972806393 0.985995914978301 78.9870972805862 0.0500340365961077 -166.479990547788 
3.76             0.0460732703333023 146.347000119394 0.985943120611772 75.955666645364  0.98594312062288 75.955666645308  0.0484895958598566 -168.026129420642 
3.8              0.0442798805134876 142.072571220862 0.985890478472929 72.9237046292254 0.985890478484184 72.923704629167  0.0468419465601835 -169.437023905292 
3.84             0.0423733659436622 137.65805003299  0.985837608998766 69.8912018924413 0.985837609010108 69.8912018923813 0.0450990369920152 -170.688895338145 
3.88             0.04035902541104 133.07586784939  0.985784105115947 66.8581500366524 0.985784105127326 66.8581500365915 0.0432705089873681 -171.75319428966 
3.92             0.0382439224000422 128.290697967011 0.985729533009585 63.82454179255   0.98572953302095 63.8245417924891 0.0413680598262745 -172.595437448257 
3.96             0.0360373787880478 123.256695651288 0.985673433274534 60.7903712140319 0.985673433285839 60.7903712139717 0.0394059373900603 -173.17380691815 
4                0.0337516931845978 117.913623962065 0.985615322459474 57.7556338769313 0.985615322470674 57.7556338768728 0.0374016129965881 -173.437538941701 
4.04             0.0314032105063748 112.181416742231 0.985554695022066 54.7203270801519 0.985554695033122 54.720327080096  0.0353766849549709 -173.32523279008 
4.08             0.0290139437326303 105.952644367816 0.985491025710089 51.6844500468249 0.985491025720963 51.6844500467726 0.0333580669687398 -172.763430680309 
4.12             0.0266140602605219 99.0824733732811 0.985423772379548 48.6480041229113 0.985423772390212 48.6480041228633 0.0313794934816505 -171.666248271427 
4.16             0.0242456883109121 91.3766004521118 0.985352379256342 45.6109929704843 0.985352379266766 45.6109929704416 0.0294832958639244 -169.937590735021 
4.2              0.0219685927746033 82.580788596622  0.985276280643136 42.5734227527668 0.985276280653302 42.5734227527302 0.0277222092620996 -167.478621904882 
4.24             0.0198679737447962 72.3844083537127 0.985194905067728 39.5353023078561 0.985194905077618 39.5353023078265 0.0261605796278808 -164.204323538583 
4.28             0.0180629320993309 60.4694398061446 0.98510767986322 36.4966433079576 0.985107679872825 36.4966433079358 0.0248737249686491 -160.072757170123 
4.32             0.0167090614368227 46.6592258665    0.985014036164116 33.4574604008688 0.98501403617343 33.4574604008555 0.0239436080289187 -155.125871620951 
4.36             0.0159802538861895 31.1878162174469 0.984913414295702 30.4177713304117 0.984913414304726 30.4177713304075 0.0234492343244314 -149.528408428978 
4.4              0.016016461402042 14.9099299771444 0.984805269527154 27.3775970325121 0.984805269535896 27.3775970325175 0.0234525011075125 -143.576720625184 
4.44             0.0168596329956429 -0.922845165649151 0.984689078151543 24.3369617036646 0.984689078160013 24.3369617036802 0.0239843527002149 -137.652050438118 
4.48             0.0184374489793147 -15.28451243272  0.984564343848612 21.2958928386153 0.984564343856826 21.2958928386414 0.0250384011657575 -132.128153491927 
4.52             0.0206114164800781 -27.7612995554933 0.984430604278793 18.2544212342395 0.984430604286775 18.2544212342762 0.0265756447840906 -127.283238300113 
4.56             0.0232368076201974 -38.4370372161299 0.984287437849657 15.2125809567874 0.984287437857434 15.2125809568347 0.0285369220458956 -123.262109252915 
4.6              0.0261938103380974 -47.608916760218 0.984134470588911 12.1704092699266 0.984134470596513 12.1704092699847 0.0308562376310548 -120.091542067811 
4.64             0.0293926995700635 -55.5989164871364 0.983971383051349 9.12794652132441 0.983971383058812 9.12794652139295 0.0334702230834256 -117.720981263411 
4.68             0.0327684006685352 -62.6806739283562 0.983797917180966 6.08523598587672 0.983797917188327 6.08523598595544 0.0363228458094208 -116.06209134274 
4.72             0.0362735062921693 -69.0665893145343 0.983613883043882 3.04232366412393 0.983613883051185 3.04232366421222 0.0393666686412763 -115.015998380169 
4.76             0.0398726591244361 -74.9159629896471 0.983419165343002 -0.000741965133296157 0.983419165350289 -0.000741965035913882 0.0425622765834697 -114.488222770814 
4.8              0.0435386147313832 -80.3471954431218 0.983213729621526 -3.04391023846712 0.983213729628844 -3.04391023836161 0.0458770038001966 -114.395143233573 
4.84             0.0472496127463628 -85.4485616550695 0.982997628059785 -6.08712864758522 0.982997628067181 -6.08712864747238 0.0492835626327525 -114.665689421549 
4.88             0.0509876434775831 -90.2864689539383 0.982771004768401 -9.13034322447492 0.982771004775922 -9.13034322435573 0.0527588272343136 -115.240742203127 
4.92             0.0547373004234341 -94.9114603817172 0.982534100480675 -12.1734989705439 0.982534100488368 -12.1734989704196 0.0562828430430295 -116.071638451407 
4.96             0.0584850117404007 -99.362497201908 0.982287256548472 -15.2165403276879 0.982287256556382 -15.2165403275596 0.0598380546847799 -117.118477613168 
5                0.0622185177588793 -103.670003382879 0.982030918148714 -18.2594116885307 0.982030918156886 -18.2594116883999 0.0634087181723569 -118.348537181345 
5.04             0.0659265101382401 -107.858039150803 0.981765636612041 -21.302057942391 0.981765636620518 -21.3020579422589 0.0669804593050354 -119.734906449567 
5.08             0.0695983789285415 -111.945865385891 0.981492070791199 -24.3444250528372 0.981492070800019 -24.3444250527053 0.0705399446264543 -121.255356018502 
5.12             0.0732240330324239 -115.949080890399 0.981210987394274 -27.3864606620321 0.981210987403471 -27.3864606619018 0.0740746378542739 -122.89142255047 
5.16             0.0767937716417619 -119.880458134906 0.980923260216981 -30.4281147164245 0.980923260226586 -30.4281147162973 0.0775726209027997 -124.62767608249 
5.2              0.0802981918771406 -123.750564251836 0.980629868218726 -33.4693401077566 0.980629868228766 -33.4693401076338 0.0810224637341838 -126.451136450282 
5.24             0.0837281227578492 -127.56822756263 0.980331892398961 -36.5100933228129 0.980331892409455 -36.5100933226961 0.0844131312308672 -128.350809069037 
5.28             0.087074578801275 -131.34089187223 0.980030511443306 -39.5503350948664 0.980030511454268 -39.5503350947568 0.0877339182484286 -130.317315244032 
5.32             0.0903287286241971 -135.074888401104 0.979726996122906 -42.5900310493788 0.979726996134346 -42.5900310492774 0.0909744061974443 -132.342596973895 
5.36             0.0934818752862868 -138.77564669559 0.979422702445177 -45.629152336203 0.979422702457096 -45.6291523361112 0.0941244361088753 -134.419680362367 
5.4              0.0965254460244588 -142.447859921033 0.979119063569391 -48.6676762403209 0.979119063581783 -48.6676762402396 0.0971740943156025 -136.542485162361 
5.44             0.099450989632596 -146.095615771259 0.978817580516207 -51.7055867630276 0.978817580529062 -51.7055867629574 0.100113707751505 -138.705670691444 
5.48             0.102250180146246 -149.722501268685 0.978519811715875 -54.742875165473 0.978519811729175 -54.7428751654147 0.102933846516397 -140.904510485761 
5.52             0.104914825762996 -153.331687609422 0.978227361455463 -57.7795404665611 0.978227361469182 -57.7795404665151 0.105625331843766 -143.134789712146 
5.56             0.107436882111073 -156.925999674807 0.977941867300548 -60.815589887416 0.977941867314655 -60.8155898873826 0.10817924798421 -145.392720635908 
5.6              0.109808469101663 -160.507973712531 0.977664986581361 -63.8510392349438 0.977664986595819 -63.8510392349229 0.110586956813359 -147.674872427868 
5.64             0.112021890685469 -164.079905868194 0.977398382047098 -66.8859132174347 0.977398382061861 -66.8859132174263 0.112840114211889 -149.978112355006 
5.68             0.114069656895863 -167.643893639404 0.977143706804759 -69.920245685673 0.97714370681978 -69.9202456856766 0.114930687463186 -152.299555986192 
5.72             0.115944507609979 -171.201871871645 0.97690258867046 -72.9540797936423 0.976902588685685 -72.9540797936574 0.116850973082514 -154.636524497708 
5.76             0.117639437502634 -174.755644577539 0.976676614071324 -75.9874680736118 0.976676614086694 -75.9874680736376 0.118593614637832 -156.986507512625 
5.8              0.119147721711263 -178.306913610115 0.97646731164491 -79.0204724211757 0.976467311660364 -79.0204724212115 0.120151620251836 -159.347130176414 
5.84             0.12046294177661 178.142694964122 0.976276135690473 -82.0531639866662 0.976276135705946 -82.0531639867107 0.121518379590817 -161.716123375317 
5.88             0.121579011476081 174.59160607939  0.976104449632169 -85.0856229702677 0.976104449647592 -85.0856229703197 0.122687680250645 -164.091296156511 
5.92             0.122490202225773 171.038271850027 0.975953509658544 -88.1179383191202 0.975953509673851 -88.1179383191784 0.123653723545196 -166.470509518908 
5.96             0.123191167793843 167.481148148447 0.975824448705505 -91.1502073256869 0.975824448720626 -91.1502073257498 0.124411139788868 -168.851650816723 
6                0.123676968142095 163.918671038923 0.975718260951055 -94.1825351276793 0.975718260965925 -94.1825351277455 0.124955003243567 -171.232608058449 
6.04             0.123943092294275 160.349232518685 0.975635786989968 -97.2150341108691 0.975635787004516 -97.2150341109373 0.125280846972726 -173.61124339348 
6.08             0.123985480217991 156.771154981951 0.975577699854759 -100.247823217145 0.97557769986892 -100.247823217213 0.125384677912161 -175.985365056941 
6.12             0.123800543802187 153.182663754245 0.97554449204638 -103.281027161207 0.975544492060094 -103.281027161274 0.125262992531854 -178.352696988367 
6.16             0.123385187113713 149.581856939092 0.975536463733546 -106.314775560311 0.975536463746756 -106.314775560376 0.124912793526953 179.289154752763 
6.2              0.122736826225357 145.966671669431 0.975553712273965 -109.34920198246 0.975553712286616 -109.349201982521 0.12433160804427 176.942739788778 
6.24             0.121853409025617 142.334845650937 0.975596123203712 -112.384442919405 0.975596123215755 -112.384442919461 0.123517508027671 174.610806648853 
6.28             0.120733435550747 138.683872608243 0.975663362832811 -115.42063669175 0.975663362844203 -115.4206366918  0.122469133359014 172.296352884022 
6.32             0.119375979527872 135.010949875623 0.97575487257547 -118.457922294325 0.975754872586176 -118.457922294368 0.121185718590485 170.00268388827  
6.36             0.117780711993074 131.312915879881 0.97586986513282 -121.496438190821 0.975869865142812 -121.496438190857 0.119667124222315 167.733482707157 
6.4              0.115947928063662 127.586174601013 0.976007322633708 -124.536321067466 0.976007322642963 -124.536321067494 0.11791387369487 165.492893734035 
6.44             0.113878578219271 123.82660320341  0.976165996825896 -127.577704556205 0.9761659968344  -127.577704556225 0.115927197560838 163.285624017482 
6.48             0.111574305811524 120.029437818068 0.976344411395054 -130.620717938522 0.976344411402803 -130.620717938534 0.1137090867162  161.117067002747 
6.52             0.109037493020088 116.189130797007 0.976540866472811 -133.665484841563 0.976540866479806 -133.665484841567 0.111262357146806 158.993455002667 
6.56             0.106271318168617 112.299170470441 0.976753445377344 -136.712121938738 0.976753445383593 -136.712121938734 0.108590729460466 156.922048674118 
6.6              0.103279828303891 108.351851246429 0.97698002361088 -139.760737667355 0.976980023616403 -139.760737667344 0.105698927623227 154.911374449373 
6.64             0.100068032371312 104.337977407904 0.977218280117754 -142.811430976126 0.977218280122573 -142.811430976109 0.102592802949656 152.971524489404 
6.68             0.0966420224135569 100.246477602587 0.977465710784552 -145.864290115593 0.977465710788702 -145.864290115572 0.0992794917261119 151.114538624857 
6.72             0.0930091333232718 96.0638979300232 0.977719644140396 -148.919391484585 0.977719644143914 -148.91939148456 0.0957676181916275 149.354894367304 
6.76             0.0891781563400544 91.7737284440432 0.977977259190616 -151.976798545764 0.977977259193547 -151.976798545735 0.0920675594356176 147.71013993971  
6.8              0.0851596285627108 87.3554989675706 0.978235605291344 -155.036560823163 0.978235605293737 -155.036560823133 0.0881917957943227 146.201716950315 
6.84             0.0809662316408907 82.7835527485356 0.978491623945863 -158.098712994278 0.978491623947772 -158.098712994247 0.0841553805640838 144.856034176829 
6.88             0.0766133497646171 78.025367182496  0.978742172376548 -161.163274088819 0.978742172378029 -161.163274088789 0.0799765777667901 143.705871471712 
6.92             0.0721198637221424 73.0392355835183 0.978984048698996 -164.230246805628 0.978984048700107 -164.2302468056  0.0756777382937247 142.792210198063 
6.96             0.0675092999524705 67.7710502313892 0.979214018498206 -167.299616958462 0.979214018499009 -167.299616958437 0.071286515409032 142.166594954364 
7                0.0628115201021762 62.1498403117645 0.979428842580722 -170.371353060447 0.979428842581274 -170.371353060426 0.0668375622510365 141.89410732673  
7.04             0.0580652399973471 56.0816532172279 0.979625305652242 -173.445406055884 0.979625305652602 -173.445406055867 0.0623749051591415 142.056920178714 
7.08             0.0533218195745767 49.4414442148081 0.979800245647832 -176.521709206849 0.979800245648056 -176.521709206838 0.0579552340075534 142.75807583907  
7.12             0.0486509612437628 42.0632132984776 0.979950583422228 -179.600178140639 0.97995058342237 -179.600178140633 0.0536523472975238 144.124337845872 
7.16             0.0441491015930424 33.7306383655262 0.980073352491385 177.319288937452 0.980073352491493 177.319288937454 0.0495628065910785 146.305254099846 
7.2              0.0399509981521987 24.1760321048034 0.980165728504069 174.236810863191 0.980165728504185 174.236810863187 0.0458121966698201 149.462411869341 
7.24             0.0362431461183124 13.1079733944969 0.980225058114387 171.152522963241 0.980225058114548 171.152522963232 0.0425597366338129 153.738599103752 
7.28             0.0332717685819551 0.306540508434087 0.98024888692327 168.066576336606 0.980248886923506 168.066576336593 0.0399959330375717 159.19545390956  
7.32             0.0313266334229644 -14.1790746903399 0.980234986159353 164.979136970422 0.980234986159689 164.979136970404 0.0383247954294055 165.722582502673 
7.36             0.0306759465819044 -29.8030779323809 0.980181377777763 161.890384694803 0.980181377778212 161.890384694782 0.037724560902133 172.963563693186 
7.4              0.0314609877778863 -45.5372481373184 0.980086357669139 158.80051198343  0.980086357669709 158.800511983407 0.0382963120364764 -179.654860577102 
7.44             0.0336284624339854 -60.3004237857348 0.979948516690622 155.709722608477 0.979948516691315 155.709722608452 0.0400302508452671 -172.754012975224 
7.48             0.0369694774170205 -73.441247071003 0.97976675925554 152.618230160361 0.97976675925635 152.618230160336 0.0428151364915561 -166.798716247823 
7.52             0.0412209167338571 -84.831116379602 0.979540319248436 149.526256444567 0.979540319249349 149.526256444542 0.0464820874084654 -162.00307314443 
7.56             0.0461426508766156 -94.6570733321124 0.979268773066612 146.434029769414 0.979268773067611 146.434029769392 0.0508512170512955 -158.369623897351 
7.6              0.0515451708688831 -103.20706436489 0.978952049627707 143.341783140112 0.978952049628772 143.341783140092 0.0557604137936621 -155.781670720157 
7.64             0.057287562116908 -110.756708345683 0.978590437224023 140.249752375706 0.978590437225125 140.249752375689 0.0610755603150103 -154.080469016937 
7.68             0.0632663573272063 -117.532360308721 0.978184587147574 137.15817416656  0.978184587148688 137.158174166547 0.0666899446383336 -153.108892812656 
7.72             0.0694046051730248 -123.708809787337 0.977735514054192 134.06728409082  0.977735514055288 134.06728409081  0.072519585066255 -152.729565614648 
7.76             0.0756435794571191 -129.417937568497 0.977244593078939 130.97731460881  0.977244593079991 130.977314608803 0.0784980019381431 -152.829147764998 
7.8              0.0819370351753813 -134.758763864688 0.976713553758319 127.888493054608 0.976713553759305 127.888493054605 0.0845717528470331 -153.316658399992 
7.84             0.0882473582359665 -139.805946147757 0.976144470855341 124.801039643997 0.976144470856235 124.801039643997 0.0906969959857251 -154.1198915862  
7.88             0.094543004760288 -144.616260960876 0.975539752221259 121.715165517702 0.975539752222047 121.715165517705 0.0968369651545328 -155.181687239435 
7.92             0.100796791246461 -149.23335153955 0.974902123861412 118.631070838281 0.974902123862084 118.631070838286 0.1029601519226  -156.456684922819 
7.96             0.106984741857344 -153.691155293319 0.974234612401513 115.548942958206 0.974234612402068 115.548942958212 0.109039005932359 -157.90869829878 
8                0.113085301830738 -158.016373417033 0.973540525174447 112.46895467565  0.973540525174889 112.468954675656 0.115049005474104 -159.508663027507 
8.04             0.119078793670783 -162.230258242487 0.972823428165674 109.391262593258 0.972823428166017 109.391262593262 0.120967990224833 -161.233057728328 
8.08             0.124947036184182 -166.349916858188 0.972087122067634 106.316005593763 0.972087122067903 106.316005593765 0.12677567946279 -163.062695880792 
8.12             0.130673074107485 -170.389270864026 0.971335616699922 103.243303444775 0.971335616700146 103.243303444772 0.132453322016816 -164.981801618932 
8.16             0.136240983802114 -174.359770115929 0.970573104052775 100.17325554341  0.970573104052993 100.173255543403 0.137983440394851 -166.977300439474 
8.2              0.141635731955826 -178.270928986569 0.969803930206871 97.1059398097488 0.969803930207132 97.1059398097356 0.143349642780909 -169.038272026918 
8.24             0.146843071725632 177.869266618082 0.969032566372907 94.0414117363447 0.969032566373259 94.0414117363252 0.148536484365729 -171.155525455664 
8.28             0.151849465720523 174.054047266376 0.968263579280633 90.9797035993225 0.968263579281138 90.9797035992963 0.153529364858297 -173.321267070282 