! Touchstone file from project TestMultiLine
! Exported from HFSS 14.0.0
! Variables:
!  gap = 22.07mm
!  hair = 35mm
!  hsub = 0.762mm
!  l = 50.07mm
!  lair = 55mm
!  lmic = 14mm
!  w = 25mm
!  wair = 40mm
!  wmic = 2.1mm
!  wp = 1mm
!Data is not renormalized
# GHZ S MA
! Modal data exported
! Port[1] = 1:1
! Port[2] = 2:1
1                0.00953684466548465 13.1804939822231 0.993742262877622 -89.0819489215719 0.993742262877646 -89.0819489215718 0.0113011440914769 -33.820949824448 
1.04             0.0104459983436406 9.34497327241793 0.993522967711461 -92.6398104495291 0.993522967709269 -92.639810449556 0.0121559969866142 -35.8389946623623 
1.08             0.0113948448924087 5.45784755357222 0.993304549428908 -96.1973565359797 0.993304549424542 -96.1973565360288 0.0130471486080053 -37.8916711337563 
1.12             0.0123821405730214 1.53122196111942 0.993087480861537 -99.754617111298 0.993087480855064 -99.7546171113645 0.0139737317311698 -39.9783530108065 
1.16             0.0134064519053809 -2.42544063723842 0.992872181252178 -103.31162290786 0.992872181243694 -103.311622907939 0.014934672817748 -42.0983773890266 
1.2              0.0144661427928785 -6.40474216991096 0.992659016840696 -106.868405099308 0.992659016830321 -106.868405099394 0.0159286829889848 -44.2510427400111 
1.24             0.0155593635645589 -10.4009095886011 0.992448302181152 -110.424994957333 0.992448302169031 -110.42499495742 0.0169542499617161 -46.4356083950666 
1.28             0.0166840416233314 -14.4094565219494 0.99224030213235 -113.981423530782 0.992240302118651 -113.981423530867 0.0180096310373463 -48.6512949149752 
1.32             0.0178378735332892 -18.4269204749995 0.992035234454726 -117.537721351389 0.992035234439634 -117.537721351467 0.0190928472368173 -50.8972849521715 
1.36             0.0190183184815475 -22.4506569173079 0.991833272938958 -121.093918169818 0.991833272922679 -121.093918169885 0.0202016786758794 -53.1727243245179 
1.4              0.020222593122923 -26.4786766707726 0.991634550985445 -124.650042725117 0.991634550968195 -124.650042725169 0.0213336612748212 -55.4767231033232 
1.44             0.0214476678672692 -30.5095165998297 0.991439165549049 -128.206122550003 0.991439165531055 -128.20612255004 0.0224860848950021 -57.8083565790591 
1.48             0.0226902647045265 -34.5421361777843 0.991247181360276 -131.762183813734 0.991247181341774 -131.762183813752 0.0236559929908835 -60.1666660116495 
1.52             0.0239468566848517 -38.575834362383 0.991058635332292 -135.318251203616 0.991058635313518 -135.318251203615 0.0248401838606595 -62.5506591022714 
1.56             0.0252136691827605 -42.6101825718087 0.990873541062869 -138.87434784555 0.990873541044059 -138.874347845531 0.0260352135710037 -64.9593101433813 
1.6              0.0264866830764977 -46.6449705538845 0.990691893341545 -142.430495263295 0.990691893322932 -142.430495263257 0.0272374006218823 -67.3915598154765 
1.64             0.0277616399679127 -50.6801626869547 0.990513672574772 -145.9867133755  0.990513672556581 -145.986713375446 0.0284428324059345 -69.8463146046424 
1.68             0.0290340495547752 -54.7158628111391 0.990338849045696 -149.543020528945 0.99033884902814 -149.543020528876 0.0296473735037458 -72.3224458154896 
1.72             0.0302991992474904 -58.7522861133279 0.990167386930257 -153.099433565791 0.990167386913535 -153.09943356571 0.0308466758416917 -74.818788150543 
1.76             0.0315521660963399 -62.7897369140894 0.989999247997503 -156.655967922166 0.989999247981797 -156.655967922075 0.0320361907232119 -77.3341378201234 
1.8              0.0327878310645485 -66.8285914554182 0.989834394929189 -160.212637754863 0.989834394914664 -160.212637754768 0.033211182727792 -79.8672501366148 
1.84             0.0340008956476776 -70.869284983866 0.98967279420185 -163.769456092555 0.989672794188649 -163.769456092458 0.0343667454550244 -82.4168365338992 
1.88             0.0351859008022181 -74.9123025781075 0.989514418483299 -167.326435007507 0.989514418471543 -167.326435007411 0.0354978190744169 -84.9815609366182 
1.92             0.0363372481071234 -78.9581732940282 0.989359248505035 -170.883585803523 0.989359248494824 -170.883585803432 0.0365992096256607 -87.5600353845599 
1.96             0.0374492230428362 -83.0074673021715 0.989207274381867 -174.440919215608 0.989207274373276 -174.440919215526 0.0376656099994798 -90.1508147944375 
2                0.0385160202346689 -87.0607957783868 0.989058496360302 -177.998445616682 0.989058496353385 -177.998445616612 0.0386916225165597 -92.7523907139713 
2.04             0.0395317704728205 -91.1188133841647 0.988912924987641 178.443824773402 0.98891292498243 178.443824773457 0.0396717830120608 -95.3631838905763 
2.08             0.0404905692914442 -95.1822232431131 0.988770580704061 174.885881681269 0.988770580700566 174.885881681307 0.0406005863265033 -97.9815354378642 
2.12             0.0413865068655867 -99.2517843886085 0.988631492870231 171.327714580552 0.988631492868442 171.327714580571 0.0414725131010457 -100.605696335916 
2.16             0.0422136989689175 -103.328321729091 0.98849569825297 167.769312504075 0.988495698252859 167.769312504073 0.0422820577770598 -103.233814943711 
2.2              0.0429663187282181 -107.412738656194 0.988363239001003 164.210663872016 0.988363239002525 164.210663871994 0.0430237577071752 -105.863922131325 
2.24             0.0436386289136723 -111.506032511942 0.988234160151865 160.651756340123 0.988234160154961 160.65175634008  0.043692223298456 -108.493913551829 
2.28             0.0442250145179263 -115.609313240524 0.988108506719373 157.092576671688 0.988108506723973 157.092576671626 0.0442821691290434 -111.121528463235 
2.32             0.0447200154023557 -119.723825685145 0.987986320418699 153.533110636652 0.987986320424721 153.533110636572 0.0447884460086585 -113.744324372952 
2.36             0.0451183588265446 -123.850976160653 0.987867636092781 149.973342940717 0.987867636100138 149.973342940621 0.0452060739923717 -116.35964660231 
2.4              0.0454149917272391 -127.992364150808 0.987752477909705 146.413257186925 0.987752477918301 146.413257186816 0.0455302764081044 -118.96459164554 
2.44             0.0456051126768075 -132.149820262431 0.987640855405469 142.852835871598 0.987640855415208 142.852835871478 0.0457565150243528 -121.555962910722 
2.48             0.0456842035298844 -136.325451940894 0.987532759450405 139.292060416023 0.987532759461184 139.292060415896 0.0458805265696641 -124.130217059398 
2.52             0.0456480608627232 -140.521698945813 0.987428158220205 135.730911234686 0.987428158231923 135.730911234555 0.0458983609252143 -126.683398679035 
2.56             0.0454928274267906 -144.741401249442 0.987326993254179 132.169367840281 0.987326993266738 132.16936784015  0.0458064214545966 -129.211060391248 
2.6              0.0452150239828045 -148.987882920654 0.987229175683861 128.607408985117 0.987229175697159 128.607408984989 0.0456015081222993 -131.708164667812 
2.64             0.0448115820641856 -153.265056792684 0.987134582714441 125.045012837974 0.987134582728381 125.045012837852 0.0452808643010503 -134.168962527315 
2.68             0.0442798784562756 -157.577556427047 0.987043054439859 121.48215719485  0.987043054454347 121.482157194737 0.0448422285023003 -136.586842823776 
2.72             0.0436177724955686 -161.930904293448 0.986954391069492 117.918819721471 0.986954391084434 117.91881972137  0.0442838927184265 -138.954143887206 
2.76             0.0428236477322057 -166.331728508649 0.986868350640505 114.354978224881 0.986868350655806 114.354978224794 0.0436047696903831 -141.261916662472 
2.8              0.041896460123039 -170.788045407611 0.986784647284985 110.790610950882 0.986784647300553 110.79061095081  0.0428044722845044 -143.499624987095 
2.84             0.040835795833389 -175.309632417104 0.986702950115012 107.225696903604 0.986702950130754 107.225696903548 0.0418834093855983 -145.654763951908 
2.88             0.0396419430871233 -179.908526352165 0.986622882781879 103.660216183003 0.9866228827977  103.660216182963 0.0408429044503336 -147.71237103047 
2.92             0.0383159845852821 175.400301761688 0.986544023757825 100.094150335668 0.986544023773625 100.094150335642 0.0396853453507926 -149.654396429311 
2.96             0.0368599202606344 170.59801991727  0.986465907379919 96.5274827139273 0.986465907395594 96.5274827139152 0.0384143777181105 -151.458888547658 
3                0.0352768353094064 165.660643478433 0.986388025686238 92.9601988379468 0.986388025701678 92.9601988379462 0.0370351591688672 -153.098937544291 
3.04             0.0335711368587281 160.557207212724 0.986309831064198 89.3922867552007 0.986309831079287 89.3922867552089 0.0355546992599475 -154.541305882961 
3.08             0.0317488966129303 155.247137494116 0.986230739720043 85.8237373915371 0.986230739734656 85.8237373915512 0.0339823206827033 -155.744663276271 
3.12             0.0298183605421814 149.676416122662 0.986150135967028 82.254544887894  0.98615013598103 82.2545448879108 0.0323302920842159 -156.657345293618 
3.16             0.0277907276882665 143.771901706447 0.986067377317962 78.6847069166667 0.986067377331208 78.6847069166828 0.0306147025746232 -157.214595835285 
3.2              0.0256813721227488 137.432839817458 0.985981800355549 75.1142249717374 0.98598180036789 75.1142249717499 0.0288566709550338 -157.335392083567 
3.24             0.0235118089049852 130.518160299671 0.985892727341542 71.5431046262632 0.985892727352817 71.5431046262692 0.0270840009782981 -156.919309995386 
3.28             0.0213129239005994 122.827849756965 0.985799473513224 67.9713557524884 0.985799473523269 67.9713557524857 0.0253333823012492 -155.84470656729 
3.32             0.0191303351931492 114.077535884445 0.985701355003367 64.3989926980969 0.985701355012013 64.3989926980843 0.0236531303640671 -153.971150376838 
3.36             0.0170331582619601 103.871195983289 0.985597697307651 60.8260344139554 0.985597697314732 60.8260344139327 0.0221061182769193 -151.151854460129 
3.4              0.0151272399748181 91.6987581158219 0.985487844211838 57.252504528511  0.985487844217189 57.2525045284791 0.0207717587678775 -147.265152039803 
3.44             0.0135703215381865 77.0442041933316 0.98537116707986 53.6784313646056 0.985371167083327 53.6784313645671 0.019744529129847 -142.273437045447 
3.48             0.0125731048464848 59.7639220923249 0.98524707439373 50.1038478950478 0.985247074395175 50.103847895007  0.0191253068588781 -136.302916077135 
3.52             0.0123495363264318 40.7066264208885 0.985115021426818 46.5287916339257 0.985115021426128 46.5287916338883 0.0190032264568969 -129.700853111823 
3.56             0.0130074778131394 21.7815924574989 0.984974519923883 42.9533044613736 0.984974519920973 42.9533044613472 0.0194326127854353 -122.999012321777 
3.6              0.0144819940467259 4.80797028724136 0.984825147654401 39.3774323802821 0.984825147649223 39.3774323802763 0.0204177781358402 -116.76198660611 
3.64             0.0165987110106234 -9.51645964544523 0.984666557700395 35.8012252042842 0.984666557692949 35.8012252043097 0.0219162597186701 -111.412210858378 
3.68             0.0191768111614225 -21.4143914606417 0.984498487336181 32.2247361772353 0.984498487326524 32.2247361773042 0.0238570310038333 -107.149959535535 
3.72             0.0220765282039754 -31.4145987272938 0.98432076635543 28.6480215253307 0.984320766343681 28.6480215254563 0.0261607976002065 -103.98560262597 
3.76             0.0252005347081853 -40.0151951503531 0.984133324700643 25.0711399439618 0.984133324686992 25.0711399441573 0.0287533765435635 -101.818672048674 
3.8              0.0284820236383568 -47.597094112755 0.983936199251649 21.4941520223796 0.983936199236366 21.4941520226581 0.0315712153525263 -100.50629697212 
3.84             0.0318737873334282 -54.4325241352152 0.983729539633053 17.917119610231  0.983729539616489 17.9171196106043 0.0345619595701092 -99.9036539536514 
3.88             0.0353408242636384 -60.7128457836607 0.983513612905534 14.3401051310188 0.983513612888125 14.3401051314964 0.0376829000091676 -99.8819009931868 
3.92             0.0388557529466943 -66.5731868518454 0.983288807012587 10.7631708485406 0.983288806994847 10.7631708491288 0.040898924276145 -100.333272632687 
3.96             0.0423960261513732 -72.1102471109292 0.983055632862467 7.1863780933704  0.983055632844988 7.18637809407087 0.0441806541697506 -101.170295598128 
4                0.0459422315927116 -77.3943885207894 0.982814724934861 3.60978645746906 0.982814724918298 3.60978645827726 0.0475029604453913 -102.322907026367 
4.04             0.0494770415816928 -82.4777118127281 0.982566840313045 0.0334529660823705 0.982566840298091 0.0334529669863013 0.0508438472462695 -103.735212520731 
4.08             0.0529845540318138 -87.399465209133 0.982312856055429 -3.54256876278759 0.982312856042792 -3.54256876180862 0.0541836383247916 -105.362559279354 
4.12             0.0564498736775956 -92.1897057347971 0.982053764836028 -7.11822935980961 0.982053764826391 -7.11822935878597 0.0575043919117124 -107.169114148687 
4.16             0.0598588437632236 -96.8718134833082 0.981790668802781 -10.6934845337445 0.981790668796751 -10.6934845327171 0.060789483049375 -109.125939523784 
4.2              0.0631978739349113 -101.464245465027 0.981524771627934 -14.2682958744044 0.981524771625984 -14.2682958734243 0.0640233068213192 -111.209494103656 
4.24             0.0664538308409  -105.981778591225 0.981257368759293 -17.842631612993 0.981257368761697 -17.8426316121205 0.0671910685035457 -113.400474105373 
4.28             0.0696139703314602 -110.43640438615 0.980989835929547 -21.4164673219254 0.980989835936309 -21.4164673212277 0.0702786363191892 -115.682919078804 
4.32             0.0726658976956903 -114.837982712378 0.980723616048903 -24.9897865347212 0.980723616059692 -24.9897865342678 0.073272439516125 -118.043520322464 
4.36             0.0755975470665993 -119.194726311096 0.980460204699426 -28.5625812658637 0.980460204713526 -28.562581265721 0.0761593994990678 -120.471083432505 
4.4              0.0783971741109757 -123.513564922828 0.980201134570484 -32.1348524115685 0.980201134586774 -32.1348524117912 0.0789268852845771 -122.956107917295 
4.44             0.0810533580588053 -127.800422601774 0.979947959317834 -35.7066100165852 0.979947959334819 -35.7066100172077 0.0815626870397557 -125.490455813929 
4.48             0.0835550104109342 -132.060431736044 0.979702237472766 -39.2778734011061 0.979702237488681 -39.2778734021327 0.0840550032272375 -128.06708812756 
4.52             0.0858913885299154 -136.298100464058 0.979465517126454 -42.8486711569098 0.979465517139437 -42.8486711583064 0.0863924381317092 -130.679853090406 
4.56             0.0880521129128032 -140.517445513496 0.979239322094583 -46.419041042917 0.979239322102931 -46.4190410446076 0.0885640074404724 -133.323314094763 
4.6              0.0900271873569334 -144.722099265851 0.979025140039462 -49.9890298341935 0.97902514004193 -49.9890298360628 0.0905591501987074 -135.992608016118 
4.64             0.0918070215184204 -148.915397602661 0.978824412524851 -53.558693197466 0.978824412520942 -53.5586931993701 0.0923677459326888 -138.683326759383 
4.68             0.0933824555660036 -153.100453514647 0.978638526225837 -57.1280956687582 0.978638526216003 -57.1280956705443 0.0939801360824813 -141.391416421613 
4.72             0.0947447867753515 -157.280220351774 0.978468803690948 -60.697310783131 0.978468803676622 -60.6973107846626 0.0953871491457628 -144.113089606701 
4.76             0.0958857980086398 -161.457547827562 0.978316491496164 -64.2664213488215 0.978316491479586 -64.2664213500031 0.0965801291323997 -146.8447472514  
4.8              0.0967977880941072 -165.635233376932 0.978182743724838 -67.835519780109 0.978182743708679 -67.8355197809045 0.0975509670845647 -149.582906898228 
4.84             0.0974736041705794 -169.816071146976 0.978068599651709 -71.4047083334204 0.978068599638578 -71.4047083338585 0.0982921355445907 -152.324134727728 
4.88             0.0979066761014253 -174.002900739944 0.977974956106541 -74.9740990631568 0.977974956098511 -74.9740990633225 0.0987967259649552 -155.064978870609 
4.92             0.098091053099499 -178.198657810751 0.977902536657855 -78.5438133466598 0.977902536656124 -78.543813346674 0.099058489163275 -157.801901575509 
4.96             0.0980214427482022 177.593571254503 0.977851860801681 -82.113980912014 0.977851860806449 -82.1139809120073 0.0990718790415625 -160.531207713027 
5                0.0976932526641545 173.370488074259 0.977823216370118 -85.6847384033044 0.97782321638067 -85.6847384033924 0.0988320999262938 -163.248966840603 
5.04             0.0971026351368103 169.128511455254 0.977816637495522 -89.2562275959791 0.977816637510478 -89.2562275962448 0.0983351580598724 -165.950925610375 
5.08             0.0962465352163607 164.863693363243 0.977831889163891 -92.8285934070655 0.977831889181524 -92.8285934075504 0.0975779180053983 -168.632406629445 
5.12             0.0951227429261499 160.571617013187 0.977868458208826 -96.4019818325095 0.977868458227372 -96.4019818332144 0.0965581650430844 -171.288188911699 
5.16             0.093729950581718 156.247270974459 0.977925549869069 -99.976537904987 0.977925549886965 -99.9765379058779 0.0952746750771514 -173.912363691874 
5.2              0.0920678166520693 151.884891140193 0.97800208880934 -103.552403721472 0.978002088825389 -103.552403722491 0.0937272941924018 -176.498157459354 
5.24             0.0901370382692653 147.477759483844 0.978096723645885 -107.129716555234 0.978096723659311 -107.129716556309 0.0919170308814409 -179.037711397876 
5.28             0.0879394354855162 143.017944309538 0.978207834329282 -110.708607047054 0.97820783433974 -110.708607048109 0.0898461652277325 178.478197321516 
5.32             0.0854780518566527 138.495960565022 0.97833354206175 -114.28919746388 0.978333542069273 -114.289197464845 0.087518381158668 176.060512202524 
5.36             0.0827572781570799 133.900319747148 0.978471721678624 -117.871600015385 0.978471721683543 -117.871600016199 0.0849389305548629 173.722359270859 
5.4              0.0797830094239393 129.216925451236 0.978620016578421 -121.455915225554 0.978620016581281 -121.455915226169 0.0821148419467743 171.479651858215 
5.44             0.0765628507787684 124.428250256126 0.978775856352461 -125.042230364181 0.978775856353931 -125.042230364564 0.0790551924181718 169.351891010475 
5.48             0.0731063957445202 119.512198492914 0.978936477266   -128.630617950161 0.978936477266809 -128.630617950294 0.075771470222722 167.363235342614 
5.52             0.0694256140512103 114.440511258093 0.979098945701784 -132.221134343943 0.979098945702646 -132.221134343823 0.0722780691694119 165.543943718569 
5.56             0.0655354076665172 109.176494831626 0.979260184611694 -135.813818450296 0.97926018461326 -135.813818449929 0.068592976660597 163.932334311029 
5.6              0.0614544301262265 103.671735987387 0.979417002945228 -139.408690554818 0.979417002948053 -139.408690554223 0.0647387494099223 162.577454828043 
5.64             0.0572063261364006 97.8612852700455 0.979566127942059 -143.005751318614 0.979566127946576 -143.005751317817 0.0607439202656755 161.542714357106 
5.68             0.0528216554783064 91.6565165148606 0.979704240094101 -146.604980955517 0.979704240100607 -146.604980954549 0.0566450539573403 160.910759052744 
5.72             0.0483409516463646 84.9345033265825 0.979828010502649 -150.206338615331 0.979828010511302 -150.206338614228 0.052489775644411 160.789793617144 
5.76             0.0438196858941678 77.5224115800042 0.979934140279626 -153.809761994952 0.979934140290448 -153.80976199375 0.0483412269615218 161.321116956036 
5.8              0.0393364242466695 69.1757104295839 0.980019401569916 -157.415167196955 0.980019401582805 -157.415167195692 0.0442844975060245 162.686255416031 
5.84             0.0350061358775461 59.552272402445  0.980080679705383 -161.022448852406 0.98008067972012 -161.022448851117 0.0404353994417972 165.108449256694 
5.88             0.0310007503391512 48.197879139908  0.980115015941778 -164.631480521296 0.980115015958049 -164.631480520014 0.0369508228442288 168.835347522024 
5.92             0.0275754960011524 34.5986337194188 0.980119650178881 -168.24211538015 0.980119650196293 -168.242115378903 0.0340363958669586 174.077494067483 
5.96             0.025083287831701 18.4282414135811 0.980092063023463 -171.854187202112 0.980092063041564 -171.854187200927 0.0319399284869606 -179.125808479428 
6                0.0239240543276238 0.0820831080926181 0.980030016525669 -175.467511630199 0.980030016543971 -175.467511629095 0.0309125220735982 -171.090232249794 
6.04             0.0243779125550188 -18.9375272021085 0.979931592903692 -179.081887739492 0.979931592921684 -179.081887738485 0.031132169031638 -162.563873522273 
6.08             0.0264282682066021 -36.6890822943938 0.97979523057039 177.302900120991 0.979795230587566 177.30290012189  0.0326299512160976 -154.505668869195 
6.12             0.0297914057187116 -52.0207065745821 0.979619756789836 173.687080221186 0.979619756805707 173.687080221971 0.0352831480532245 -147.673708010393 
6.16             0.0341063441534663 -64.8399357390921 0.979404416321997 170.070891097148 0.979404416336107 170.070891097818 0.0388801193434617 -142.395208760695 
6.2              0.0390687540885251 -75.5797742130536 0.979148895460034 166.45457897694  0.979148895471977 166.454578977497 0.0431963530987228 -138.637946346463 
6.24             0.0444597328347971 -84.7490071848975 0.978853340926322 162.838395014314 0.978853340935746 162.838395014764 0.0480374709400349 -136.193845803984 
6.28             0.0501286327551458 -92.7660584289244 0.978518373169125 159.222592363446 0.978518373175752 159.222592363797 0.0532500344833189 -134.815177711812 
6.32             0.0559705094690081 -99.9385674394344 0.978145093690311 155.607423131641 0.978145093693931 155.607423131905 0.0587168077451085 -134.27769494255 
6.36             0.0619094133873219 -106.484970941237 0.977735086133   151.993135249923 0.977735086133486 151.993135250111 0.0643481300598345 -134.398730383073 
6.4              0.067887691081059 -112.559775360065 0.977290410964402 148.379969303687 0.977290410961697 148.379969303812 0.0700741176684378 -135.035994036993 
6.44             0.0738594200112356 -118.273296366683 0.976813593699747 144.768155367075 0.976813593693879 144.768155367151 0.0758387898775233 -136.080498869621 
6.48             0.0797863987535683 -123.705472305238 0.976307606725534 141.15790988535  0.976307606716598 141.157909885389 0.0815959472241288 -137.449005587226 
6.52             0.0856356736760395 -128.915203067322 0.97577584489052 137.549432649341 0.975775844878681 137.549432649355 0.0873063585798996 -139.077662858116 
6.56             0.0913779909793562 -133.946627363965 0.975222095138263 133.942903904968 0.975222095123744 133.942903904968 0.0929358575455238 -140.917095321594 
6.6              0.0969868138201982 -138.83337042129 0.974650500552342 130.338481639044 0.974650500535422 130.338481639038 0.0984540531830889 -142.928742790725 
6.64             0.102437690880704 -143.601453939198 0.974065519272404 126.73629907995  0.974065519253398 126.736299079946 0.103833452628799 -145.082168490401 
6.68             0.107707847700955 -148.271319217695 0.973471878813558 123.136462448625 0.973471878792811 123.136462448626 0.109048860402644 -147.353084504306 
6.72             0.11277592169575 -152.8592558288  0.972874526382217 119.53904899154  0.972874526360098 119.53904899155  0.114076964828496 -149.721898145018 
6.76             0.117621791196199 -157.378426454793 0.972278575827186 115.944105323235 0.972278575804073 115.944105323254 0.118896052053153 -152.172634443934 
6.8              0.122226466641931 -161.839613485131 0.971689251895364 112.351646101503 0.971689251871633 112.351646101529 0.123485807839471 -154.69213043203 
6.84             0.126572023029275 -166.251771195355 0.971111832477558 108.761653053746 0.971111832453579 108.761653053775 0.127827180226767 -157.269426687784 
6.88             0.130641559650747 -170.622440239656 0.970551589532088 105.174074368333 0.970551589508204 105.174074368361 0.131902284696496 -159.895302949144 
6.92             0.134419177639172 -174.958063406406 0.970013729363898 101.588824460201 0.970013729340431 101.588824460222 0.135694339197859 -162.561919652383 
6.96             0.137889968798141 -179.264229765313 0.969503332916444 98.0057841154701 0.969503332893682 98.0057841154778 0.139187620264819 -165.262537869001 
7                0.141040011224217 176.45413362205  0.969025296704773 94.4248010156101 0.969025296682967 94.4248010155982 0.14236743412564 -167.99129758904 
7.04             0.143856368650236 172.192608675524 0.968584274983163 90.8456906377532 0.968584274962523 90.8456906377155 0.14522009857579 -170.743039586283 
7.08             0.146327091476331 167.947161928425 0.968184623702078 87.2682375241093 0.96818462368277 87.2682375240406 0.147732932719369 -173.513159853129 
7.12             0.148441218239647 163.714041376291 0.967830346768669 83.6921969101659 0.967830346750817 83.6921969100621 0.149894252656702 -176.297488262674 
7.16             0.150188776889847 159.489688894467 0.967525045085301 80.1172966984019 0.967525045068991 80.1172966982606 0.151693371921571 -179.092185013457 
7.2              0.151560785739516 155.270663815439 0.967271868802932 76.5432397616286 0.967271868788206 76.5432397614496 0.153120606028765 178.106350248555 
7.24             0.152549254381768 151.053574093322 0.967073473192439 72.969706557732  0.967073473179302 72.9697065575173 0.154167280934687 175.301560811313 
7.28             0.153147185235088 146.835012015855 0.966931978508076 69.3963580354994 0.966931978496506 69.3963580352536 0.154825745579013 172.496810354759 
7.32             0.15334857670435 142.611491714809 0.966848934193874 65.8228388093108 0.966848934183829 65.8228388090411 0.15508938899253 169.695458708294 
7.36             0.153148429250144 138.379385806617 0.966825287766232 62.2487805786854 0.966825287757644 62.2487805784019 0.154952662748744 166.900939001585 
7.4              0.152542755948419 134.134858375974 0.966861358693871 58.6738057669597 0.966861358686662 58.6738057666752 0.154411109826371 164.116839384395 
7.44             0.151528599413335 129.873791184036 0.966956817589098 55.0975313516475 0.966956817583191 55.0975313513769 0.153461401259155 161.346992792692 
7.48             0.150104057266627 125.591699404294 0.967110671020821 51.5195728572496 0.967110671016129 51.5195728570107 0.152101382306048 158.595578792013 
7.52             0.148268318693678 121.283632298826 0.967321252258195 47.9395484794112 0.967321252254647 47.9395484792234 0.150330130314743 155.86724239437  
7.56             0.146021715069344 116.944052942377 0.967586218252773 44.3570833072871 0.967586218250308 44.3570833071713 0.148148027025173 153.167236017344 
7.6              0.143365788225529 112.566689222821 0.967902553163599 40.7718136088207 0.967902553162178 40.7718136087987 0.145556848840042 150.501592578523 
7.64             0.140303380759537 108.14434565278  0.968266578722095 37.1833911412984 0.968266578721692 37.1833911413927 0.14255987968501 147.877340312304 
7.68             0.136838753990211 103.66866165174  0.968673971718607 33.591487447097  0.96867397171923 33.5914874473297 0.139162052655355 145.302773581763 
7.72             0.132977740981492 99.1297963396145 0.969119788867958 29.9957980919894 0.969119788869635 29.9957980923819 0.135370128948932 142.787799215625 
7.76             0.128727944826273 94.5160116548359 0.9695984992741  26.3960468008222 0.969598499276889 26.396046801394  0.131192926004578 140.344385443566 
7.8              0.124098996690307 89.8131134219809 0.970104024662191 22.7919894429032 0.970104024666171 22.7919894436719 0.126641611909099 137.987151396756 
7.84             0.119102894894844 85.0036917207042 0.970629787477477 19.1834178171553 0.970629787482745 19.1834178181357 0.121730090970717 135.734150963914 
7.88             0.113754457128745 80.0660741852354 0.971168766863206 15.5701631851553 0.971168766869879 15.5701631863587 0.116475517434572 133.607927859371 
7.92             0.108071935368261 74.9728633571588 0.97171356242322 11.9520994987281 0.971713562431425 11.9520995001614 0.110898993153614 131.636952351019 
7.96             0.102077871792014 69.688863535829  0.972256465549025 8.32914626798872 0.972256465558893 8.32914626965479 0.105026534730164 129.857598546491 
8                0.0958003218463887 64.16810090953   0.972789537947017 4.70127101577449 0.972789537958671 4.70127101767103 0.0988904428867662 128.316889174642 
8.04             0.0892746516271021 58.3494850021757 0.973304696841142 1.06849126547946 0.973304696854694 1.06849126759902 0.0925312822838438 127.076324384662 
8.08             0.0825462554914155 52.1504293857183 0.97379380615305 -2.56912398846358 0.973793806168585 -2.56912398613335 0.0860007998968078 126.217210619998 
8.12             0.075674778426448 45.4574429424307 0.974248772780131 -6.21145337466732 0.974248772797705 -6.21145337214443 0.0793662958482838 125.847957451525 
8.16             0.0687408321441709 38.1124168357951 0.974661646907557 -9.858322845707  0.97466164692718 -9.85832284301448 0.0727172287544517 126.113619504604 
8.2              0.0618568392746706 29.8935472032753 0.975024725110221 -13.5095060217277 0.975024725131854 -13.5095060188931 0.066175152210967 127.206959018317 
8.24             0.0551844817140787 20.492305986334  0.975330654831915 -17.1647252047181 0.975330654855462 -17.1647252017738 0.0599081845598486 129.37702336905  
8.28             0.0489615109153723 9.49799585783463 0.975572538680223 -20.8236530821585 0.975572538705521 -20.8236530791406 0.0541501547404984 132.922553195936 