! Touchstone file from project TestMultiLine
! Exported from HFSS 14.0.0
! Variables:
!  gap = 29.87mm
!  hair = 35mm
!  hsub = 0.762mm
!  l = 57.87mm
!  lair = 62mm
!  lmic = 14mm
!  w = 25mm
!  wair = 40mm
!  wmic = 2.1mm
!  wp = 1mm
!Data is not renormalized
# GHZ S MA
! Modal data exported
! Port[1] = 1:1
! Port[2] = 2:1
1                0.00951145453915324 -0.527782485086913 0.992712368417663 -102.829916288701 0.992712368417532 -102.829916288701 0.0114227408934343 -48.584437304726 
1.04             0.0101677314329695 -7.72740352643193 0.992470814613637 -106.936160651349 0.992470814609691 -106.93616065187 0.0124418245243552 -49.9861538519532 
1.08             0.010819231837381 -14.7346955956998 0.992232803504357 -111.042169671302 0.992232803496713 -111.042169672232 0.013512924335907 -51.5920707536115 
1.12             0.0114147059542481 -21.72157666766  0.991998534193449 -115.147987798257 0.991998534182457 -115.147987799485 0.0146314424368622 -53.3765228498213 
1.16             0.0118519796036187 -29.0119390560843 0.991768130130641 -119.253656740746 0.991768130116846 -119.253656742167 0.0157926376785859 -55.3167456962633 
1.2              0.0118794641468128 -37.4130659537232 0.991541650668931 -123.359215134383 0.99154165065303 -123.359215135898 0.016991607127416 -57.3928797219592 
1.24             0.0106384493993442 -50.1531397601054 0.991319102858766 -127.464698327818 0.991319102841559 -127.464698329341 0.0182232626533177 -59.5877774572375 
1.28             0.00426549093314409 -136.172654960513 0.991100453165568 -131.570138282088 0.991100453147915 -131.570138283545 0.019482306471384 -61.886719861767 
1.32             0.0362338563813712 -3.44762342231393 0.990885638823685 -135.675563576765 0.990885638806463 -135.675563578094 0.0207632080403855 -64.2771039225964 
1.36             0.0267107939686249 -33.3779069990936 0.990674578570275 -139.780999514379 0.990674578554328 -139.780999515531 0.0220601838541833 -66.7481356730482 
1.4              0.0254227219295964 -43.6669155054817 0.990467182535592 -143.886468313   0.990467182521698 -143.886468313943 0.0233671811548611 -69.2905456692028 
1.44             0.0255924211533966 -50.7667786632693 0.990263361100854 -147.991989375623 0.990263361089688 -147.991989376334 0.0246778663097579 -71.8963339324062 
1.48             0.026262388558967 -56.735762324706 0.990063032570318 -152.097579624052 0.990063032562429 -152.097579624523 0.0259856184351654 -74.5585457581903 
1.52             0.0271608420691455 -62.1632542211768 0.98986612953984 -156.203253884387 0.989866129535624 -156.203253884623 0.0272835287579393 -77.2710768509302 
1.56             0.0281782162948692 -67.2872570289972 0.989672603879311 -160.309025310858 0.989672603879002 -160.309025310871 0.0285644061455799 -80.0285048598624 
1.6              0.0292590660393506 -72.2253931200145 0.989482430280524 -164.414905834668 0.989482430284181 -164.414905834479 0.0298207891826766 -82.8259438826832 
1.64             0.0303699611298721 -77.0443223320995 0.989295608354719 -168.520906624706 0.989295608362231 -168.520906624343 0.0310449651133924 -85.6589184565824 
1.68             0.0314876168605196 -81.7857708280651 0.98911216329501 -172.627038547319 0.989112163306095 -172.627038546816 0.0322289958983404 -88.5232537304666 
1.72             0.0325938117823735 -86.4778769813329 0.988932145147743 -176.733312612954 0.988932145161963 -176.733312612347 0.0333647515464655 -91.4149787655607 
1.76             0.0336729778825913 -91.1407190873673 0.988755626763424 179.16025960183  0.988755626780201 179.160259602504 0.0344439507782981 -94.3302401642676 
1.8              0.0347109785592396 -95.7892543753683 0.988582700521939 175.053665567547 0.988582700540573 175.053665568251 0.0354582089588272 -97.2652234334732 
1.84             0.0356944692001394 -100.434999305787 0.98841347394825 170.946891459747 0.988413473967944 170.946891460445 0.0363990931113032 -100.216079621578 
1.88             0.0366105689413654 -105.087054034173 0.988248064353577 166.83992187021  0.988248064373461 166.839921870869 0.0372581836949579 -103.178854810384 
1.92             0.0374467118227247 -109.75276664036 0.988086592653024 162.732739578591 0.988086592672183 162.732739579181 0.0380271427095565 -106.149419978027 
1.96             0.0381906085630749 -114.438192130508 0.98792917652387 158.625325390498 0.987929176541372 158.625325390996 0.0386977875897552 -109.123398559423 
2                0.0388302802868582 -119.148432593868 0.987775923079158 154.517658046609 0.987775923094079 154.517658046994 0.0392621702864925 -112.096088692163 
2.04             0.0393541405389348 -123.88790960953 0.987626921238803 150.409714206069 0.987626921250254 150.409714206327 0.0397126609174661 -115.062376613714 
2.08             0.0397511096426422 -128.660601159013 0.987482233985384 146.301468506039 0.987482233992537 146.301468506161 0.0400420354231965 -118.016636920034 
2.12             0.0400107495662064 -133.470265103914 0.987341890693908 142.192893697817 0.987341890696012 142.192893697799 0.0402435668117797 -120.952614333778 
2.16             0.0401234098179085 -138.320665998411 0.987205879724346 138.083960858587 0.987205879720754 138.083960858431 0.0403111198418497 -123.863280157195 
2.2              0.0400803764852197 -143.215819843241 0.98707414146271 133.974639676454 0.987074141452886 133.974639676166 0.0402392494151255 -126.740654550057 
2.24             0.0398740179331408 -148.160271600776 0.986946561990754 129.864898805053 0.986946561974291 129.864898804642 0.0400233035757534 -129.575582959683 
2.28             0.0394979222208  -153.159422765041 0.986822967556345 125.754706282731 0.986822967532967 125.754706282211 0.039659532912949 -132.357451127743 
2.32             0.0389470231995451 -158.219931408646 0.986703120006018 121.644030010032 0.986703119975588 121.64403000942  0.0391452094395689 -135.073817663085 
2.36             0.0382177146839455 -163.350215858396 0.986586713328392 117.532838278004 0.986586713290916 117.532838277316 0.0384787598301409 -137.709935573029 
2.4              0.0373079552155571 -168.561107204002 0.986473371441988 113.421100338751 0.986473371397603 113.421100338008 0.0376599204927766 -140.24812351314 
2.44             0.0362173700434317 -173.866718168563 0.986362647343624 109.308787008633 0.986362647292596 109.308787007852 0.0366899257043589 -142.666932674746 
2.48             0.0349473625363962 -179.285631486731 0.986254023714088 105.195871293549 0.986254023656805 105.195871292751 0.0355717455604527 -144.940034722267 
2.52             0.0335012553042718 175.157431528157 0.986146915056252 101.082329025009 0.986146914993213 101.08232902421  0.034310398723258 -147.034728520137 
2.56             0.031884493733541 169.429207101118 0.986040671417323 96.9681394949382 0.986040671349113 96.9681394941558 0.0329133773444838 -148.909927928706 
2.6              0.0301049650917977 163.484337041771 0.985934583721598 92.85328607672   0.985934583648886 92.8532860759685 0.0313912402533004 -150.513452660198 
2.64             0.0281735219403632 157.259989233388 0.985827890713347 88.73775681953   0.985827890636861 88.7377568188215 0.029758458486486 -151.778412890393 
2.68             0.0261048633803  150.667517256178 0.985719787480971 84.6215450028926 0.985719787401484 84.6215450022367 0.0280346377261585 -152.61849917743 
2.72             0.0239190497858191 143.579265074601 0.985609435504301 80.504649638342  0.985609435422612 80.5046496377455 0.0262462959637657 -152.922179200015 
2.76             0.021644162188649 135.807431407488 0.985495974136599 76.3870759052935 0.985495974053517 76.3870759047607 0.0244294304798006 -152.54645130241 
2.8              0.0193210717601108 127.070465961386 0.985378533402154 72.268835508635  0.985378533318481 72.2688355081676 0.0226331147511881 -151.312557884474 
2.84             0.017012112787105 116.942785639308 0.985256247959726 68.1499469461957 0.98525624787624 68.1499469457929 0.0209241623021634 -149.010112659755 
2.88             0.0148166181085228 104.795812792623 0.985128272051953 64.0304356751194 0.985128271969393 64.0304356747784 0.019392083687986 -145.423674284205 
2.92             0.0128959645825853 89.8002495007832 0.984993795231787 59.9103341672826 0.98499379515085 59.9103341669987 0.0181514717788029 -140.404302793689 
2.96             0.0114993051732075 71.2477451790346 0.984852058629706 55.7896818452473 0.984852058551023 55.7896818450143 0.0173354571709485 -134.000508762067 
3                0.0109377218101152 49.5790768130328 0.984702371500393 51.6685248918228 0.984702371424532 51.6685248916335 0.017072455881195 -126.60143161701 
3.04             0.0114279151621272 27.3096626691672 0.984544127765734 47.5469159281186 0.984544127693188 47.5469159279653 0.0174479741995967 -118.943572588862 
3.08             0.0129209735341016 7.47500214113707 0.984376822252607 43.42491355699   0.984376822183794 43.4249135568647 0.0184737591149975 -111.868903228592 
3.12             0.0151730193039396 -8.74418294939693 0.984200066310185 39.3025817709851 0.984200066245442 39.30258177088   0.0200900371061493 -105.991707082766 
3.16             0.0179328875710192 -21.7933281905826 0.984013602482553 35.1799892262726 0.98401360242214 35.1799892261805 0.0221968579006522 -101.55396224974 
3.2              0.0210206179695601 -32.5263123601957 0.983817317909165 31.0572083865286 0.983817317853269 31.0572083864429 0.0246875487622341 -98.5075103818138 
3.24             0.0243199703134354 -41.6546539763536 0.983611256128431 26.9343145433485 0.983611256077163 26.9343145432642 0.0274675076256276 -96.6648726235916 
3.28             0.0277551268980421 -49.672902509995 0.983395626968821 22.8113847223905 0.983395626922227 22.8113847223033 0.0304594083111611 -95.8073116601316 
3.32             0.031273705313034 -56.9097172959217 0.983170814227677 18.6884964870824 0.983170814185741 18.6884964869898 0.0336016472777879 -95.7356763076266 
3.36             0.0348367712844823 -63.5837982565657 0.982937380860336 14.5657266543159 0.98293738082299 14.5657266542165 0.036844864883562 -96.2858000308044 
3.4              0.038413241067295 -69.8433010223895 0.982696071431221 10.443149939013  0.982696071398347 10.4431499389069 0.0401486265196792 -97.3281267996743 
3.44             0.0419767346960092 -75.7909455004009 0.982447811613916 6.32083754676849 0.982447811585359 6.32083754665708 0.043478837384643 -98.7621688709973 
3.48             0.0455037755040301 -81.499676870384 0.982193704568565 2.19885573586414 0.982193704544136 2.19885573574983 0.0468058862817274 -100.510277220408 
3.52             0.0489727421317527 -87.0224995479012 0.981935024071494 -1.92273562822725 0.98193502405098 -1.92273562834123 0.0501033616326872 -102.512238975697 
3.56             0.0523632537916641 -92.3987604249442 0.981673204323195 -6.04388450121437 0.981673204306362 -6.04388450132422 0.0533471799070852 -104.721009873248 
3.6              0.0556558134094627 -97.6582498202903 0.981409826415753 -10.1645480454635 0.981409826402356 -10.1645480455649 0.0565150013536292 -107.099474810661 
3.64             0.058831609293591 -102.823938581401 0.981146601498563 -14.2846939460472 0.981146601488346 -14.284693946136 0.0595858436152136 -109.618028382301 
3.68             0.0618724170494442 -107.913845971664 0.980885350740728 -18.4043016305252 0.980885350733429 -18.4043016305974 0.0625398315784661 -112.252775466705 
3.72             0.0647605662299282 -112.942342359878 0.980627982248886 -22.5233633657451 0.980627982244243 -22.5233633657973 0.0653580414501618 -114.98418968317 
3.76             0.067478949220462 -117.921077212956 0.980376465159287 -26.6418852055578 0.980376465157033 -26.6418852055872 0.0680224104261568 -117.796106691773 
3.8              0.0700110575273037 -122.859654173202 0.980132801181704 -30.7598877644257 0.980132801181579 -30.7598877644306 0.0705156923069904 -120.674961714881 
3.84             0.0723410353343817 -127.766132644482 0.97989899392943 -34.8774067934611 0.97989899393117 -34.8774067934408 0.0728214454595379 -123.60920528355 
3.88             0.0744537432027662 -132.647408735228 0.979677016423059 -38.9944935374648 0.979677016426402 -38.9944935374199 0.0749240436280678 -126.588849207723 
3.92             0.0763348268244213 -137.509511458134 0.979468777205445 -43.1112148540244 0.979468777210129 -43.1112148539566 0.0768087029292369 -129.605107665915 
3.96             0.0779707872120133 -142.357839134445 0.979276085550313 -47.2276530786607 0.979276085556077 -47.2276530785728 0.0784615203624962 -132.650107452692 
4                0.0793490498389347 -147.197353817407 0.979100616286888 -51.3439056233544 0.97910061629347 -51.3439056232503 0.079869520616552 -135.71664784604 
4.04             0.0804580311685928 -152.032746912292 0.978943874797108 -55.4600842995114 0.978943874804242 -55.4600842993958 0.0810207090421438 -138.797995010769 
4.08             0.0812872018029232 -156.868586221396 0.978807162769915 -59.5763143605065 0.978807162777338 -59.5763143603848 0.0819041295173626 -141.88769885823 
4.12             0.0818271461790864 -161.709452892243 0.978691545318389 -63.6927332633391 0.978691545325835 -63.6927332632172 0.0825099266416005 -144.979422182804 
4.16             0.0820696193769707 -166.560075914133 0.978597820079463 -67.8094891536017 0.978597820086671 -67.8094891534854 0.0828294123237542 -148.066772903893 
4.2              0.0820076021905486 -171.425471756825 0.978526488922332 -71.9267390828584 0.978526488929038 -71.9267390827534 0.0828551374355655 -151.143130464161 
4.24             0.0816353561896522 -176.311097458246 0.978477732889572 -76.0446469726015 0.978477732895524 -76.0446469725129 0.0825809698385699 -154.201456880855 
4.28             0.0809484810942291 178.77697295642  0.97845139098406 -80.1633813441476 0.978451390989013 -80.1633813440801 0.0820021808302139 -157.234081531843 
4.32             0.0799439774618855 173.831836170601 0.978446943394001 -84.2831128390806 0.978446943397724 -84.2831128390375 0.0811155429813308 -160.232446283149 
4.36             0.0786203185492289 168.845494646291 0.978463499717092 -88.404011560077 0.978463499719373 -88.4040115600607 0.0799194435830569 -163.186793683824 
4.4              0.0769775364043863 163.808515923487 0.978499792702184 -92.5262442670765 0.978499792702834 -92.5262442670878 0.0784140196816561 -166.085775110666 
4.44             0.0750173290342335 158.709583236235 0.978554177971739 -96.64997146869  0.978554177970598 -96.6499714687285 0.0766013232564266 -168.915947073334 
4.48             0.0727431982789458 153.5348895154   0.978624640120323 -100.775344453364 0.978624640117265 -100.775344453428 0.074485528965184 -171.66111105788 
4.52             0.0701606325117534 148.267303455568 0.978708805502424 -104.902502309018 0.97870880549736 -104.902502309103 0.072073202808477 -174.301433261226 
4.56             0.0672773556544706 142.885199290846 0.978803961926821 -109.031568983527 0.978803961919706 -109.03156898363 0.0693736592944555 -176.812252284863 
4.6              0.0641036763616375 137.360782256485 0.978907085364311 -113.162650441377 0.978907085355142 -113.162650441492 0.0663994492808313 -179.162440802064 
4.64             0.0606529923911576 131.657643837907 0.979014873651363 -117.295831973929 0.979014873640185 -117.295831974049 0.0631670440630229 178.687874882871 
4.68             0.056942542257798 125.727117671344 0.97912378703512 -121.431175721868 0.979123787022029 -121.431175721986 0.0596978192084533 176.790523157648 
4.72             0.0529945628720416 119.502731277793 0.979230095256889 -125.568718468419 0.979230095242026 -125.568718468529 0.0560195035895611 175.213831626087 
4.76             0.0488381346638174 112.891581956375 0.979329930714217 -129.708469760636 0.979329930697763 -129.708469760731 0.0521683600773344 174.049060695233 
4.8              0.0445122275900363 105.760690673777 0.979419347079289 -133.85041041344 0.979419347061471 -133.850410413514 0.048192525611408 173.41937375865  
4.84             0.0400709063436712 97.91520531484   0.979494382587727 -137.994491447015 0.979494382568805 -137.994491447062 0.044157179287833 173.491769446667 
4.88             0.0355925003593712 89.064018230589  0.979551127051777 -142.140633502531 0.979551127032038 -142.140633502547 0.0401525015835058 174.49103371648  
4.92             0.0311960424536925 78.7693485382546 0.979585791501042 -146.288726774115 0.979585791480793 -146.288726774098 0.0363054966957923 176.710006410818 
4.96             0.0270701783488297 66.3915970172303 0.979594779218108 -150.438631486398 0.979594779197669 -150.438631486347 0.0327957106584971 -179.502598135972 
5                0.0235179956485482 51.1097638516582 0.979574756821948 -154.59017893712 0.979574756801637 -154.590178937035 0.0298699580207791 -173.822028992114 
5.04             0.0209966121195169 32.2904540283034 0.979522723964789 -158.743173113215 0.979522723944919 -158.7431731131  0.0278380970916655 -166.160867032995 
5.08             0.0200495554794512 10.5426256273925 0.979436080153887 -162.897392876831 0.979436080134749 -162.89739287669 0.0270160716202583 -156.991980852138 
5.12             0.0210092435138138 -11.5264918515895 0.979312687192851 -167.052594705169 0.979312687174711 -167.052594705006 0.0276051239437492 -147.459532005003 
5.16             0.0237246707012307 -31.0375185088926 0.97915092576157 -171.208515955114 0.979150925744655 -171.208515954938 0.029588647567645 -138.903918933114 
5.2              0.0277301635606258 -46.9920102997636 0.978949744721098 -175.36487861091 0.978949744705594 -175.364878610728 0.0327566338779865 -132.172301877501 
5.24             0.0325720450861659 -59.8822254599217 0.978708701840415 -179.521393460799 0.978708701826459 -179.52139346062 0.0368247146995304 -127.434300504004 
5.28             0.0379295059449135 -70.539913150474 0.978427994793915 176.322235362786 0.97842799478159 176.322235362955 0.0415306027830005 -124.453536278216 
5.32             0.043594977589208 -79.6472273350611 0.978108481468123 172.166305554973 0.978108481457463 172.166305555123 0.046667815050956 -122.876838682834 
5.36             0.0494322953655972 -87.677569716781 0.977751688837849 168.011111606062 0.977751688828832 168.011111606188 0.0520825557409564 -122.377396169062 
5.4              0.0553470435167305 -94.9461654760252 0.977359809918527 163.856939655436 0.97735980991108 163.85693965553  0.0576604471403355 -122.694904494035 
5.44             0.0612692234737989 -101.663312443409 0.976935688564471 159.704062326483 0.976935688558478 159.704062326541 0.0633142624512272 -123.63345631617 
5.48             0.0671435486908657 -107.971801922645 0.976482792152686 155.552733639327 0.976482792147991 155.552733639349 0.0689750522301925 -125.048273977463 
5.52             0.0729239852133657 -113.970824848743 0.976005172459371 151.403184097836 0.976005172455787 151.40318409782  0.0745862434815373 -126.832420947352 
5.56             0.0785706185810057 -119.73094375988 0.975507415291806 147.25561604475  0.975507415289124 147.2556160447   0.0800998276029882 -128.906285978908 
5.6              0.0840478132603933 -125.30353261919 0.974994579673563 143.110199374061 0.974994579671563 143.110199373982 0.0854739123503798 -131.209898335465 
5.64             0.0893231074353704 -130.726830189132 0.974472127588588 138.967067683046 0.974472127587048 138.967067682944 0.0906711435617927 -133.697471599606 
5.68             0.0943665370101933 -136.029902493708 0.97394584546416 134.826314938035 0.973945845462867 134.826314937921 0.095657679799072 -136.333557154496 
5.72             0.0991502163300945 -141.235292673402 0.973421758710398 130.687992718317 0.973421758709155 130.687992718201 0.100402520676379 -139.090323122638 
5.76             0.103648075949064 -146.360830652346 0.972906040733048 126.552108091962 0.972906040731687 126.552108091856 0.104877063778931 -141.945612260063 
5.8              0.107835698563585 -151.420894219429 0.972404917897571 122.418622166095 0.972404917895956 122.418622166013 0.109054811146368 -144.88153917729 
5.84             0.111690217726684 -156.427305043085 0.971924571947719 118.287449342687 0.971924571945756 118.287449342641 0.112911174986091 -147.883462981946 
5.88             0.115190257853511 -161.389977496473 0.971471041375228 114.158457299459 0.971471041372858 114.158457299462 0.116423350325609 -150.93922318451 
5.92             0.118315902441815 -166.31739759638 0.971050123203731 110.031467704431 0.971050123200946 110.031467704494 0.119570233812698 -154.038561595066 
5.96             0.121048682617052 -171.216983843656 0.970667276595405 105.906257662027 0.970667276592233 105.906257662161 0.122332375307734 -157.172676386856 
6                0.123371581347452 -176.095365454514 0.970327529619646 101.782561878793 0.970327529616161 101.782561879004 0.124691953788146 -160.333870284024 
6.04             0.125269050700806 179.041397066386 0.970035390445113 97.6600755275932 0.970035390441418 97.6600755278861 0.12663277232396 -163.515265471445 
6.08             0.126727040777145 174.187630912779 0.969794764135817 93.5384577808016 0.969794764132042 93.5384577811777 0.128140269062644 -166.710564983288 
6.12             0.127733039728355 169.337895849143 0.969608876153112 89.4173359753245 0.969608876149413 89.4173359757814 0.129201542650475 -169.913845082152 
6.16             0.128276124749687 164.486844050157 0.96948020359237 85.2963103652438 0.969480203588909 85.2963103657753 0.129805391562231 -173.119366181143 
6.2              0.128347024228254 159.629085525641 0.96941041511806 81.1749594113373 0.969410415114999 81.1749594119333 0.12994236758447 -176.32139161109 
6.24             0.12793819146059 154.759050305229 0.969400320504687 77.0528455505181 0.969400320502179 77.0528455511651 0.129604844334136 -179.514004228463 
6.28             0.127043890595255 149.870838212677 0.969449830642862 72.9295213822278 0.969449830641037 72.9295213829084 0.128787102312084 177.309089418809 
6.32             0.12566029581152 144.958045754635 0.96955792882736 68.8045362028361 0.969557928826325 68.8045362035302 0.127485432713264 174.154778952153 
6.36             0.123785605325392 140.013557167334 0.969722654103153 64.6774428130604 0.969722654102964 64.6774428137451 0.125698263189722 171.030808159795 
6.4              0.121420172775122 135.029282587135 0.969941097401585 60.547804517213  0.969941097402265 60.5478045178636 0.123426310190307 167.946089380826 
6.44             0.118566660109869 129.995819914095 0.970209411145039 56.4152022267216 0.970209411146546 56.4152022273124 0.120672764676213 164.911098942847 
6.48             0.115230218647315 124.902007014925 0.970522832927998 52.2792415738816 0.97052283293025 52.2792415743863 0.117443521387928 161.938388090508 
6.52             0.111418709066991 119.734315452669 0.970875723788073 48.1395599353307 0.970875723790922 48.1395599357237 0.113747467141161 159.043258695472 
6.56             0.107142977759051 114.476012548788 0.971261621454442 43.995833258495  0.971261621457689 43.9958332587523 0.109596852045288 156.244675755515 
6.6              0.102417217883552 109.10597948147  0.971673308797441 39.8477825785405 0.971673308800835 39.8477825786404 0.105007781065065 153.566523757332 
6.64             0.0972594618159255 103.597009191192 0.972102897495741 35.6951801085593 0.97210289749899 35.6951801084833 0.100000885413948 151.039368633013 
6.68             0.0916922830934688 97.9133011460284 0.972541926683845 31.5378547822716 0.972541926686625 31.5378547820047 0.0946022698797497 148.702972857137 
6.72             0.0857438414514929 92.0066881396555 0.972981476041349 27.3756971269457 0.972981476043307 27.3756971264777 0.0888448940282576 146.6099461449   
6.76             0.0794495054720044 85.8108144353512 0.973412292439377 23.2086633450402 0.973412292440149 23.2086633443662 0.0827706515252683 144.831123729026 
6.8              0.0728544770454355 79.2319290186566 0.973824928874582 19.0367784868043 0.97382492887381 19.0367784859242 0.0764335970151511 143.463575897274 
6.84             0.0660182097534474 72.1339832467887 0.974209894007518 14.860138603191  0.974209894004859 14.8601386021105 0.0699050938770506 142.642561206367 
6.88             0.0590221457976677 64.3140849677952 0.97455781019386 10.6789117793585 0.974557810189005 10.6789117780886 0.0632822114539373 142.559059747774 
6.92             0.0519837675019418 55.4620504491422 0.974859577472101 6.4933379640083  0.974859577464789 6.49333796256507 0.0567015782016337 143.48388856175  
6.96             0.0450827938280904 45.09687462125   0.975106540570831 2.30372752892937 0.975106540560855 2.3037275273339  0.0503619282678218 145.794607489833 
7                0.0386097217870055 32.486301764081  0.975290655645832 -1.88954148373088 0.975290655633059 -1.88954148545338 0.0445581737104903 149.98283382475  
7.04             0.033046723285492 16.6383617888939 0.975404653176069 -6.08602744213412 0.975404653160447 -6.08602744395495 0.0397212896202856 156.567758762097 
7.08             0.0291485536156949 -3.26794364961499 0.975442193261304 -10.2852305191555 0.975442193242866 -10.2852305210438 0.0364251351762267 165.765971388015 
7.12             0.0278237973798497 -26.4719201100994 0.975398009493048 -14.4865993542444 0.975398009471917 -14.4865993561675 0.0352646102115639 176.893714972204 
7.16             0.0295624865118418 -49.6604218919632 0.975268037630674 -18.6895389032776 0.975268037607065 -18.6895389052018 0.0365617771425111 -171.830380836659 
7.2              0.0339780718444402 -69.5359729447514 0.975049525515416 -22.8934193638659 0.975049525489623 -22.8934193657589 0.0401508658477267 -162.288576349537 
7.24             0.0402305908135453 -85.3583368758787 0.974741120998271 -27.0975860320166 0.974741120970674 -27.097586033847 0.0455236350956077 -155.334609443831 
7.28             0.0475974171684719 -97.9542426651242 0.974342935137147 -31.3013699173331 0.974342935108191 -31.3013699190722 0.0521289334223501 -150.842094408888 
7.32             0.0556062625597087 -108.314108104101 0.973856578517983 -35.5040989194445 0.973856578488166 -35.5040989210669 0.059529381205926 -148.307079893929 
7.36             0.0639650965953094 -117.16767090388 0.973285169250982 -39.705109349205 0.973285169220843 -39.7051093506895 0.067415097326681 -147.224703346117 
7.4              0.0724865924450506 -124.994004665956 0.97263331195562 -43.9037575653546 0.972633311925719 -43.9037575666846 0.075570555195865 -147.200231778945 
7.44             0.0810419779640652 -132.101968669368 0.971907047841761 -48.099431491376 0.971907047812661 -48.0994314925398 0.0838418707004583 -147.948874640606 
7.48             0.0895359628152114 -138.693533141839 0.971113776781366 -52.2915617784942 0.971113776753618 -52.2915617794853 0.0921142409621377 -149.269576192125 
7.52             0.097893285506091 -144.904067002573 0.970262153008716 -56.4796323890011 0.970262152982836 -56.4796323898183 0.100297899835136 -151.020054873118 
7.56             0.106051352595279 -150.826785529745 0.969361956752869 -60.6631903888863 0.969361956729319 -60.6631903895334 0.108319609462899 -153.09834923499 
7.6              0.113956097560447 -156.527596945447 0.968423944665633 -64.8418547592629 0.968423944644813 -64.8418547597483 0.116117497462184 -155.430172417055 
7.64             0.121559586172612 -162.054278892933 0.967459682340795 -69.015324061252 0.967459682323024 -69.0153240615881 0.12363788271108 -157.9604333331  
7.68             0.128818597835716 -167.442284951961 0.966481362513493 -73.1833828175147 0.966481362499003 -73.1833828177178 0.130833288876615 -160.647551300253 
7.72             0.135693767354533 -172.718511313357 0.965501612679151 -77.3459065041889 0.965501612668075 -77.3459065042775 0.137661176532548 -163.459606347327 
7.76             0.142149055558286 -177.903800787729 0.964533295885365 -81.5028650781973 0.964533295877742 -81.502865078192 0.144083116608721 -166.371695130103 
7.8              0.148151415652417 176.985353081096 0.963589308340881 -85.654324995514 0.963589308336645 -85.6543249954363 0.150064238896811 -169.364085044418 
7.84             0.153670576697414 171.935620098961 0.962682377273407 -89.8004497048911 0.962682377272398 -89.8004497047628 0.15557285436268 -172.420903031331 
7.88             0.158678896894229 166.935990266932 0.961824862176636 -93.941498627882 0.961824862178606 -93.9414986277244 0.16058018883857 -175.529187166277 
7.92             0.163151257947867 161.977161628784 0.961028562243453 -98.0778246591353 0.961028562248066 -98.0778246589681 0.165060189346383 -178.678187420302 
7.96             0.167064983231954 157.051086307081 0.960304532413677 -102.209870240526 0.960304532420534 -102.209870240367 0.168989379065041 178.141160665463 
8                0.170399769785254 152.150626198205 0.959662910097027 -106.338162078663 0.959662910105672 -106.338162078528 0.172346746359698 174.936641490944 
8.04             0.17313762899908 147.269285186424 0.959112754287726 -110.463304587818 0.959112754297663 -110.463304587718 0.175113659409828 171.715080420729 
8.08             0.17526283414818 142.400994602159 0.958661898485597 -114.585972149747 0.958661898496304 -114.585972149693 0.177273802038318 168.482606285969 
8.12             0.176761875228742 137.539934988719 0.958316818593361 -118.706900288801 0.958316818604303 -118.706900288798 0.178813129104516 165.244874531064 
8.16             0.177623423227289 132.680381252182 0.958082516780363 -122.826875865701 0.958082516791016 -122.826875865751 0.179719841751482 162.007265784374 
8.2              0.177838307161556 127.816560664331 0.957962422192219 -126.946726397317 0.957962422202081 -126.946726397421 0.179984384199568 158.775071951127 
8.24             0.177399508150383 122.942514376985 0.957958309342616 -131.067308613249 0.957958309351224 -131.067308613402 0.17959946487111 155.553680536471 
8.28             0.17630217549344 118.051953287099 0.958070235040327 -135.189496363911 0.958070235047265 -135.189496364108 0.178560105583183 152.34876759711  
8.32             0.174543670376867 113.138098302962 0.958296494770379 -139.31416799967 0.9582964947753  -139.314167999903 0.176863723512682 149.166510442647 