! Touchstone file from project TestMultiLine
! Exported from HFSS 14.0.0
! Variables:
!  gap = 0mm
!  hair = 35mm
!  hsub = 0.762mm
!  l = 28mm
!  lair = 40mm
!  lmic = 14mm
!  w = 25mm
!  wair = 40mm
!  wmic = 2.1mm
!Data is not renormalized
# GHZ S MA
! Modal data exported
! Port[1] = 1:1
1                0.998080814441338 -51.7014674498301 
1.04             0.998031522388727 -53.7622068072588 
1.08             0.99797899745403 -55.8220953127497 
1.12             0.997923116400227 -57.881102517954 
1.16             0.997863756039237 -59.9391983091104 
1.2              0.997800793667518 -61.9963529323639 
1.24             0.997734107502889 -64.0525370201789 
1.28             0.997663577121292 -66.107721618834 
1.32             0.997589083892212 -68.1618782169815 
1.36             0.997510511411463 -70.21497877525  
1.4              0.99742774593009 -72.2669957568667 
1.44             0.997340676778106 -74.3179021592683 
1.48             0.997249196781862 -76.3676715466691 
1.52             0.997153202673805 -78.4162780835472 
1.56             0.997052595493466 -80.4636965690106 
1.6              0.996947280978513 -82.5099024719961 
1.64             0.996837169944757 -84.5548719672555 
1.68             0.996722178654028 -86.598581972076 
1.72             0.996602229168894 -88.641010183682 
1.76             0.996477249693232 -90.6821351172597 
1.8              0.996347174897713 -92.7219361445458 
1.84             0.996211946229321 -94.7603935329165 
1.88             0.996071512204066 -96.7974884849127 
1.92             0.995925828682137 -98.8332031781346 
1.96             0.995774859124771 -100.867520805435 
2                0.995618574832193 -102.900425615345 
2.04             0.995456955162062 -104.931902952652 
2.08             0.995289987727876 -106.961939299069 
2.12             0.995117668576915 -108.99052231391 
2.16             0.994940002347325 -111.017640874698 
2.2              0.994757002404035 -113.043285117644 
2.24             0.994568690953262 -115.067446477897 
2.28             0.994375099135429 -117.090117729513 
2.32             0.994176267096391 -119.111293025058 
2.36             0.993972244036917 -121.130967934762 
2.4              0.993763088240473 -123.149139485171 
2.44             0.993548867079382 -125.165806197198 
2.48             0.993329656999516 -127.180968123522 
2.52             0.993105543483744 -129.194626885255 
2.56             0.992876620994402 -131.206785707803 
2.6              0.99264299289512 -133.217449455864 
2.64             0.992404771352388 -135.226624667489 
2.68             0.992162077217302 -137.23431958714 
2.72             0.991915039887964 -139.24054419769 
2.76             0.99166379715308 -141.245310251298 
2.8              0.991408495017307 -143.248631299101 
2.84             0.991149287508984 -145.250522719674 
2.88             0.990886336470852 -147.25100174619 
2.92             0.990619811334475 -149.250087492246 
2.96             0.990349888879039 -151.247800976289 
3                0.990076752975258 -153.244165144604 
3.04             0.989800594315129 -155.239204892819 
3.08             0.989521610128305 -157.232947085881 
3.12             0.98924000388584 -159.225420576465 
3.16             0.988955984992102 -161.216656221773 
3.2              0.988669768465627 -163.206686898698 
3.24             0.988381574609712 -165.195547517301 
3.28             0.988091628673518 -167.18327503259 
3.32             0.987800160504476 -169.169908454549 
3.36             0.987507404192761 -171.155488856403 
3.4              0.9872135977086  -173.140059381086 
3.44             0.986918982533152 -175.123665245886 
3.48             0.986623803283707 -177.106353745244 
3.52             0.98632830733391 -179.088174251675 
3.56             0.9860327444297  178.930821785201 
3.6              0.985737366301647 176.950580841541 
3.64             0.985442426274322 174.971047324111 
3.68             0.985148178873339 172.992163577072 
3.72             0.984854879430648 171.013869890746 
3.76             0.984562783688667 169.036104512396 
3.8              0.984272147403778 167.058803659015 
3.84             0.983983225949719 165.081901532185 
3.88             0.983696273921332 163.105330334981 
3.92             0.983411544739158 161.129020290993 
3.96             0.983129290255272 159.152899665445 
4                0.98284976036078 157.176894788475 
4.04             0.982573202595349 155.200930080576 
4.08             0.982299861759109 153.224928080237 
4.12             0.982029979527245 151.248809473815 
4.16             0.981763794067607 149.272493127664 
4.2              0.981501539661556 147.295896122559 
4.24             0.981243446328364 145.318933790451 
4.28             0.980989739453354 143.341519753581 
4.32             0.98074063942002 141.363565966002 
4.36             0.980496361246324 139.384982757552 
4.4              0.980257114225366 137.405678880304 
4.44             0.980023101570589 135.425561557566 
4.48             0.979794520065722 133.444536535454 
4.52             0.979571559719594 131.462508137099 
4.56             0.979354403426004 129.479379319541 
4.6              0.97914322662882 127.495051733365 
4.64             0.978938196992438 125.509425785124 
4.68             0.978739474077848 123.522400702623 
4.72             0.978547209024405 121.533874603108 
4.76             0.978361544237587 119.543744564431 
4.8              0.978182613082905 117.551906699254 
4.84             0.978010539586219 115.558256232339 
4.88             0.977845438140728 113.56268758101  
4.92             0.977687413220905 111.565094438837 
4.96             0.977536559103697 109.565369862601 
5                0.977392959597367 107.563406362618 
5.04             0.97725668777831 105.559095996472 
5.08             0.977127805736326 103.552330466227 
5.12             0.977006364328781 101.54300121916  
5.16             0.976892402944187 99.530999552093  
5.2              0.976785949275753 97.5162167193569 
5.24             0.976687019105526 95.4985440444496 
5.28             0.976595616099796 93.4778730354223 
5.32             0.976511731616461 91.4540955040366 
5.36             0.976435344525154 89.4271036887243 
5.4              0.976366421040959 87.3967903813723 
5.44             0.976304914572603 85.3630490579497 
5.48             0.976250765586104 83.3257740129846 
5.52             0.976203901484837 81.2848604978858 
5.56             0.976164236507173 79.2402048630966 
5.6              0.976131671642734 77.1917047040512 
5.64             0.976106094568524 75.1392590108959 
5.68             0.976087379606141 73.0827683219173 
5.72             0.976075387701381 71.0221348806079 
5.76             0.976069966427563 68.957262796279  
5.8              0.976070950013985 66.8880582081154 
5.84             0.976078159400905 64.814429452544  
5.88             0.976091402322518 62.7362872337711 
5.92             0.976110473419401 60.6535447973151 
5.96             0.976135154381926 58.5661181063453 
6                0.976165214126108 56.4739260206074 
6.04             0.97620040900342 54.3768904776928 
6.08             0.976240483046009 52.2749366763832 
6.12             0.976285168248773 50.1679932617715 
6.16             0.976334184889688 48.0559925118337 
6.2              0.976387241889735 45.9388705250973 
6.24             0.976444037213655 43.8165674090199 
6.28             0.976504258312724 41.6890274686625 
6.32             0.976567582610586 39.5561993952113 
6.36             0.97663367803306 37.4180364538709 
6.4              0.976702203582712 35.2744966706176 
6.44             0.976772809958758 33.1255430172777 
6.48             0.976845140222709 30.9711435943584 
6.52             0.97691883050996 28.8112718110326 
6.56             0.976993510787257 26.645906561652  
6.6              0.977068805655737 24.4750323981321 
6.64             0.977144335198967 22.2986396975314 
6.68             0.977219715875086 20.1167248241196 
6.72             0.97729456145185 17.9292902852124 
6.76             0.977368483983048 15.7363448800285 
6.8              0.977441094824401 13.5379038408111 
6.84             0.977512005686666 11.3339889654461 
6.88             0.977580829723343 9.12462874079202 
6.92             0.977647182649934 6.90985845594665 
6.96             0.977710683891352 4.68972030465995 
7                0.977770957753672 2.46426347611907 
7.04             0.977827634615987 0.233544233336459 
7.08             0.977880352137812 -2.00237402161416 
7.12             0.977928756477018 -4.24342069624674 
7.16             0.977972503512963 -6.48951797090343 
7.2              0.978011260069133 -8.74058077726137 
7.24             0.97804470512925 -10.9965167927441 
7.28             0.978072531040549 -13.2572264514303 
7.32             0.978094444697628 -15.5226029720012 
7.36             0.978110168700085 -17.7925324032157 
7.4              0.978119442476935 -20.0668936873379 
7.44             0.978122023370711 -22.3455587418721 
7.48             0.978117687674029 -24.6283925598933 
7.52             0.978106231611428 -26.9152533291763 
7.56             0.97808747225925 -29.2059925702497 
7.6              0.978061248396524 -31.5004552934085 
7.64             0.978027421279872 -33.7984801746353 
7.68             0.977985875335782 -36.0998997502783 
7.72             0.977936518763816 -38.4045406302458 
7.76             0.977879284044684 -40.7122237293751 
7.8              0.977814128347613 -43.0227645165335 
7.84             0.977741033831815 -45.3359732809165 
7.88             0.977660007837493 -47.6516554149035 
7.92             0.97757108296239 -49.9696117127395 
7.96             0.977474317020532 -52.2896386842136 
8                0.977369792880536 -54.611528882419 
8.04             0.977257618181584 -56.9350712445871 
8.08             0.977137924925934 -59.2600514449111 
8.12             0.977010868947609 -61.5862522581972 
8.16             0.976876629257765 -63.9134539331103 
8.2              0.976735407268041 -66.2414345737221 
8.24             0.976587425893941 -68.5699705280125 
8.28             0.976432928541247 -70.898836781931 
8.32             0.976272177979112 -73.227807357586 
8.36             0.976105455104321 -75.5566557141033 
8.4              0.975933057601907 -77.885155149675 
8.44             0.975755298508032 -80.2130792033124 
8.48             0.975572504681581 -82.5402020548173 
8.52             0.975385015191608 -84.8662989214933 
8.56             0.975193179628209 -87.1911464501439 
8.6              0.974997356344847 -89.5145231029287 
8.64             0.974797910640578 -91.8362095356892 
8.68             0.974595212890851 -94.155988967402 
8.72             0.974389636635828 -96.4736475394715 
8.76             0.974181556635315 -98.7889746636364 
8.8              0.973971346899444 -101.101763357335 
8.84             0.97375937870422 -103.411810565442 
8.88             0.973546018601053 -105.718917467387 
8.92             0.973331626429119 -108.02288976872 
8.96             0.973116553339308 -110.323537976313 
9                0.972901139838146 -112.620677656456 
9.04             0.972685713859803 -114.914129675193 
9.08             0.972470588873896 -117.203720420374 
9.12             0.97225606203638 -119.48928200494 
9.16             0.972042412390355 -121.770652451118 
9.2              0.971829899123156 -124.047675855229 
9.24             0.971618759885523 -126.320202532963 
9.28             0.971409209178201 -128.588089145032 
9.32             0.971201436810707 -130.851198803201 
9.36             0.97099560643652 -133.109401156806 
9.4              0.97079185416838 -135.362572459901 
9.44             0.970590287276872 -137.61059561931 
9.48             0.970390982974962 -139.853360223882 
9.52             0.970193987290633 -142.090762555333 
9.56             0.96999931402935 -144.322705581125 
9.6              0.969806943827583 -146.549098929877 
9.64             0.969616823298247 -148.769858849856 
9.68             0.969428864268517 -150.984908151143 
9.72             0.969242943110146 -153.194176132103 
9.76             0.96905890016208 -155.397598490831 
9.8              0.968876539244917 -157.595117222269 
9.84             0.9686956272665  -159.786680501705 
9.88             0.968515893917738 -161.9722425554  
9.92             0.968337031457595 -164.151763519095 
9.96             0.968158694586024 -166.325209285153 
10               0.967980500403558 -168.492551339111 
10.04            0.96779864689654 -170.651993715491 
10.08            0.967615351194512 -172.804899463436 
10.12            0.967430500144371 -174.951209829978 
10.16            0.967243957647353 -177.090872553012 
10.2             0.967055565288874 -179.223841581526 
10.24            0.966865143140785 178.649923208362 
10.28            0.96667249073968 176.5304563005   
10.32            0.966477388245441 174.417786827865 
10.36            0.966279597784753 172.311938862713 
10.4             0.966078864984961 170.212931706669 
10.44            0.965874920704262 168.120780179616 
10.48            0.965667482964807 166.035494906292 
10.52            0.965456259095858 163.95708259937  
10.56            0.96524094809462 161.885546337806 
10.6             0.9650212432127  159.820885839086 
10.64            0.964796834776341 157.763097723974 
10.68            0.964567413248514 155.712175772176 
10.72            0.964332672540585 153.66811116723  
10.76            0.964092313580567 151.630892728771 
10.8             0.963846048143765 149.600507130105 
10.84            0.963593602949876 147.576939098865 
10.88            0.963334724028213 145.560171598256 
10.92            0.963069181349487 143.550185986199 
10.96            0.962796773718565 141.546962149406 
11               0.962517333917408 139.550478609193 
11.04            0.962230734081168 137.560712595565 
11.08            0.961936891282838 135.57764008591  
11.12            0.961635773292865 133.601235804403 
11.16            0.961327404469715 131.631473178094 
11.2             0.961011871725376 129.668324245552 
11.24            0.960689330496291 127.711759513951 
11.28            0.96036001063518 125.761747760581 
11.32            0.960024222122959 123.818255775067 
11.36            0.959682360482556 121.881248038991 
11.4             0.959334911758431 119.950686340296 
11.44            0.958982456907458 118.026529320743 
11.48            0.958625675429335 116.108731955875 
11.52            0.958265348048655 114.19724496844  
11.56            0.957902358247403 112.292014178013 
11.6             0.957537692437155 110.392979791705 
11.64            0.957172438556072 108.500075643304 
11.68            0.956807782878488 106.613228390889 
11.72            0.95644500483604 104.732356685971 
11.76            0.956085469670378 102.857370330256 
11.8             0.955730618769886 100.988169439272 
11.84            0.955381957587498 99.1246436350792 
11.88            0.955041041094085 97.2666712929548 
11.92            0.954709456791865 95.4141188690812 
11.96            0.95438880539372 93.5668403377132 
12               0.954080679365264 91.7246767667345 
12.04            0.953786639623955 89.8874560598161 
12.08            0.953508190789215 88.054992891347  
12.12            0.953246755474663 86.2270888568192 
12.16            0.953003648202136 84.4035328563699 
12.2             0.952780049591212 82.5841017227946 
12.24            0.952576981531266 80.7685610976922 
12.28            0.952395284070178 78.9566665507844 
12.32            0.95223559475015 77.1481649282478 
12.36            0.952098331083967 75.3427959065748 
12.4             0.951983676793522 73.5402937195822 
12.44            0.951891572328206 71.7403890182432 
12.48            0.951821710047662 69.9428108165622 
12.52            0.95177353429772 68.1472884721842 
12.56            0.95174624643807 66.3535536481592 
12.6             0.951738814704733 64.5613422024535 
12.64            0.95174998861959 62.7703959544225 
12.68            0.95177831750258 60.9804642823881 
12.72            0.951822172508442 59.1913055133665 
12.76            0.95187977150557 57.4026880744469 
12.8             0.95194920604453 55.6143913847793 
12.84            0.95202846962993 53.82620647703   
12.88            0.952115486511357 52.0379363469373 
12.92            0.952208140244177 50.2493960387293 
12.96            0.952304301334707 48.4604124822297 
13               0.952401853370449 46.6708241041484 
13.04            0.952498717138231 44.8804802411445 
13.08            0.952592872344223 43.0892403856784 
13.12            0.952682376663368 41.2969732974753 
13.16            0.952765381956035 39.5035560137301 
13.2             0.95284014759186 37.7088727901889 
13.24            0.952905050911307 35.9128140031877 
13.28            0.952958594932037 34.1152750398676 
13.32            0.95299941346862 32.3161552003806 
13.36            0.953026273880272 30.5153566321947 
13.4             0.953038077692778 28.7127833128055 
13.44            0.953033859358962 26.9083400934515 
13.48            0.953012783428509 25.1019318129386 
13.52            0.952974140394806 23.2934624875076 
13.56            0.95291734147541 21.4828345798968 
13.6             0.95284191256608 19.6699483483747 
13.64            0.952747487587435 17.8547012745674 
13.68            0.952633801420104 16.0369875673618 
13.72            0.952500682599782 14.216697738991  
13.76            0.952348045919221 12.3937182485813 
13.8             0.952175885060451 10.5679312079032 
13.84            0.951984265358293 8.73921414378488 
13.88            0.951773316775706 6.90743981156462 
13.92            0.951543227153114 5.0724760540452  
13.96            0.951294235777564 3.23418570062254 
14               0.951026627303507 1.392426501563   
14.04            0.95074072604499 -0.452948907227788 
14.08            0.950436890649056 -2.30209301319933 
14.12            0.950115509151953 -4.15516341373733 
14.16            0.949776994413212 -6.01232278372618 
14.2             0.949421779917521 -7.87373882706369 
14.24            0.9490503159305  -9.7395842146852 
14.28            0.948663065991663 -11.6100365112713 
14.32            0.94826050372599 -13.4852780924483 
14.36            0.947843109954407 -15.3654960539544 
14.4             0.947411370082914 -17.2508821139422 
14.44            0.946965771750111 -19.1416325093064 
14.48            0.946506802713165 -21.0379478866746 
14.52            0.946034948952947 -22.9400331884781 
14.56            0.945550692979893 -24.8480975343145 
14.6             0.945054512323148 -26.7623540976365 
14.64            0.944546878186693 -28.683019977645 
14.68            0.944028254257279 -30.6103160661222 
14.72            0.943499095650236 -32.5444669088152 
14.76            0.942959847980378 -34.4857005608746 
14.8             0.942410946546446 -36.4342484357513 
14.84            0.941852815618639 -38.3903451468711 
14.88            0.941285867819911 -40.35422834133  
14.92            0.940710503592765 -42.3261385247827 
14.96            0.94012711074425 -44.3063188766421 
15               0.939536064062821 -46.2950150546477 
15.04            0.938937725001614 -48.2924749878177 
15.08            0.938332441423482 -50.2989486567576 
15.12            0.937720547403942 -52.3146878602583 
15.16            0.937102363088847 -54.3399459670921 
15.2             0.936478194604326 -56.3749776518821 
15.24            0.93584833401706 -58.4200386139017 
15.28            0.935213059343601 -60.4753852776535 
15.32            0.934572634607904 -62.5412744740544 
15.36            0.933927309946734 -64.6179631010607 
15.4             0.93327732176304 -66.7057077625729 
15.44            0.932622892927757 -68.8047643844625 
15.48            0.931964233030874 -70.9153878065943 
15.52            0.931301538682847 -73.037831349746 
15.56            0.930634993867789 -75.1723463563628 
15.6             0.929964770349983 -77.319181704148 
15.64            0.929291028135532 -79.4785832915497 
15.68            0.928613915991015 -81.6507934942868 
15.72            0.927933572021144 -83.8360505921572 
15.76            0.927250124307419 -86.0345881654782 
15.8             0.926563691609763 -88.2466344606508 
15.84            0.925874384133018 -90.4724117244809 
15.88            0.925182304360063 -92.7121355070694 
15.92            0.924487547953044 -94.9660139332816 
15.96            0.923790204723999 -97.2342469430122 
16               0.923090359675713 -99.5170255007205 
16.04            0.922388094113254 -101.814530774968 
16.08            0.921683486826102 -104.126933288985 
16.12            0.920976615340165 -106.454392043619 
16.16            0.920267557238268 -108.797053614356 
16.2             0.919556391546952 -111.15505122448 
16.24            0.918843200186497 -113.528503796826 
16.28            0.91812806948013 -115.917514987014 
16.32            0.917411091717368 -118.322172201469 
16.36            0.916692366765235 -120.742545604006 
16.4             0.915972003719979 -123.178687115226 
16.44            0.915250122590583 -125.63062940944 
16.48            0.914526856004099 -128.098384914345 
16.52            0.913802350921449 -130.581944819149 
16.56            0.913076770351028 -133.081278097321 
16.6             0.912350295046047 -135.596330550612 
16.64            0.911623125170256 -138.12702388145 
16.68            0.910895481915475 -140.673254801189 
16.72            0.91016760905312 -143.234894182107 
16.76            0.909439774400951 -145.811786261328 
16.8             0.908712271185373 -148.403747905139 
16.84            0.907985419278919 -151.010567942329 
16.88            0.907259566292154 -153.632006575307 
16.92            0.906535088499017 -156.267794877766 
16.96            0.905812391574782 -158.917634387548 
17               0.905091911126255 -161.58119680321 
17.04            0.904374112994668 -164.258123792439 
17.08            0.903659493312904 -166.94802692003 
17.12            0.902948578300311 -169.650487702591 
17.16            0.902241923780323 -172.365057796412 
17.2             0.901540114408529 -175.091259324123 
17.24            0.900843762601563 -177.828585344796 
17.28            0.900153507160354 179.423499528925 
17.32            0.899470011584694 176.665558364301 
17.36            0.898793962079832 173.898180991472 
17.4             0.89812606525974 171.121982936258 
17.44            0.897467045555786 168.337604204538 
17.48            0.896817642343751 165.545707921471 
17.52            0.896178606806269 162.746978830372 
17.56            0.895550698551862 159.9421216576   
17.6             0.894934682015655 157.131859351306 
17.64            0.89433132267043 154.316931203415 
17.68            0.893741383080012 151.49809086555  
17.72            0.893165618829748 148.676104270983 
17.76            0.892604774371189 145.851747475792 
17.8             0.892059578819814 143.025804433499 
17.84            0.891530741745756 140.19906471828  
17.88            0.891018948997956 137.372321212526 
17.92            0.890524858601962 134.546367775004 
17.96            0.890049096770709 131.721996906129 
18               0.889592254066085 128.899997426897 
18.04            0.889154881746936 126.081152187875 
18.08            0.888737488336438 123.26623582424  
18.12            0.888340536438525 120.456012572284 
18.16            0.887964439829438 117.651234162016 
18.2             0.887609560846392 114.852637799517 
18.24            0.887276208091177 112.06094425163  
18.28            0.886964634462024 109.276856044245 
18.32            0.886675035522653 106.501055784141 
18.36            0.886407548212897 103.734204612857 
18.4             0.886162249901047 100.976940799557 
18.44            0.885939157773902 98.2298784783257 
18.48            0.885738228556612 95.493606533775  
18.52            0.885559358550983 92.7686876372955 
18.56            0.88540238397768 90.055657434828  
18.6             0.885267081605101 87.3550238855784 
18.64            0.885153169645426 84.667266749762  
18.68            0.8850603088965  81.9928372222218 
18.72            0.884988104106904 79.3321577076211 
18.76            0.884936105540616 76.6856217318924 
18.8             0.884903810717219 74.0535939837427 
18.84            0.884890666303531 71.4364104792471 
18.88            0.884896070132812 68.834378841937  
18.92            0.884919373328357 66.2477786902975 
18.96            0.884959882509153 63.6768621242153 
19               0.885016862056482 61.1218543016664 
19.04            0.885089536421662 58.5829540968125 
19.08            0.885177092456663 56.0603348306345 
19.12            0.885278681750932 53.5541450653104 
19.16            0.885393422959476 51.064509453699  
19.2             0.885520404108978 48.5915296355244 
19.24            0.885658684870471 46.1352851721519 
19.28            0.885807298788773 43.6958345122059 
19.32            0.885965255460583 41.2732159806729 
19.36            0.886131542654723 38.8674487845673 
19.4             0.886305128369467 36.478534028701  
19.44            0.886484962823358 34.1064557355682 
19.48            0.88666998037714 31.7511818638473 
19.52            0.886859101385621 29.4126653205072 
19.56            0.887051233979338 27.0908449619923 
19.6             0.887245275776769 24.7856465804366 
19.64            0.887440115528662 22.4969838713143 
19.68            0.887634634696724 20.224759379389  
19.72            0.887827708969453 17.9688654202414 
19.76            0.888018209718351 15.7291849750566 
19.8             0.888205005398106 13.50559255674   
19.84            0.888386962894578 11.2979550457732 
19.88            0.888562948824573 9.10613249455187 
19.92            0.888731830791491 6.9299788992521  
19.96            0.888892478600918 4.76934293854119 
20               0.8890437654402  2.62406867869743 
