! Touchstone file from project TestMultiLine
! Exported from HFSS 14.0.0
! Variables:
!  gap = 0mm
!  hair = 35mm
!  hsub = 0.762mm
!  l = 28mm
!  lair = 40mm
!  lmic = 14mm
!  w = 25mm
!  wair = 40mm
!  wmic = 2.1mm
!Data is not renormalized
# GHZ S MA
! Modal data exported
! Port[1] = 1:1
1                0.998056797364897 -52.8224068687831 
1.04             0.997978662355313 -54.9121016904233 
1.08             0.997899899605046 -56.9993511693902 
1.12             0.99782050150059 -59.0841042846146 
1.16             0.997740432027367 -61.1663127370396 
1.2              0.99765962782394 -63.2459308663461 
1.24             0.997577999486757 -65.3229155762483 
1.28             0.997495433091134 -67.3972262691673 
1.32             0.997411791894826 -69.4688247908175 
1.36             0.997326918191702 -71.537675384999 
1.4              0.997240635284609 -73.6037446586695 
1.44             0.997152749548442 -75.6670015571885 
1.48             0.997063052556512 -77.7274173494663 
1.52             0.996971323245559 -79.7849656226249 
1.56             0.996877330097046 -81.839622285673 
1.6              0.996780833314663 -83.8913655816206 
1.64             0.996681586980216 -85.9401761073982 
1.68             0.996579341172244 -87.9860368409103 
1.72             0.996473844033721 -90.0289331745277 
1.76             0.996364843777167 -92.0688529543162 
1.8              0.996252090617216 -94.1057865243008 
1.84             0.996135338622339 -96.1397267750803 
1.88             0.996014347478901 -98.170669196122 
1.92             0.995888884162033 -100.198611931099 
1.96             0.99575872450902 -102.223555835658 
2                0.995623654691933 -104.24550453704 
2.04             0.995483472587191 -106.264464495012 
2.08             0.995337989040517 -108.280445063614 
2.12             0.995187029026498 -110.29345855324 
2.16             0.995030432702548 -112.303520292627 
2.2              0.994868056357621 -114.310648690371 
2.24             0.994699773256441 -116.314865295578 
2.28             0.994525474380447 -118.31619485736 
2.32             0.994345069066926 -120.314665382851 
2.36             0.994158485548116 -122.310308193483 
2.4              0.993965671392262 -124.303157979287 
2.44             0.993766593848817 -126.293252851007 
2.48             0.993561240100097 -128.280634389813 
2.52             0.993349617421856 -130.265347694472 
2.56             0.993131753255319 -132.247441425797 
2.6              0.992907695193284 -134.226967848254 
2.64             0.992677510882972 -136.203982868597 
2.68             0.992441287848312 -138.178546071424 
2.72             0.992199133234414 -140.150720751556 
2.76             0.991951173476937 -142.120573943139 
2.8              0.991697553899118 -144.088176445403 
2.84             0.99143843823918 -146.053602844978 
2.88             0.991174008110847 -148.016931534702 
2.92             0.990904462399673 -149.978244728851 
2.96             0.99063001659787 -151.937628474708 
3                0.990350902080315 -153.89517266039 
3.04             0.990067365324382 -155.850971018874 
3.08             0.98977966707625 -157.805121128119 
3.12             0.989488081466319 -159.757724407197 
3.16             0.989192895076369 -161.708886108354 
3.2              0.988894405961116 -163.658715304869 
3.24             0.988592922626806 -165.607324874619 
3.28             0.988288762969584 -167.55483147922 
3.32             0.987982253176347 -169.501355538601 
3.36             0.987673726590929 -171.447021200873 
3.4              0.987363522548509 -173.391956307334 
3.44             0.987051985181257 -175.336292352426 
3.48             0.986739462198383 -177.280164438472 
3.52             0.986426303643888 -179.223711224997 
3.56             0.986112860635534 178.832925127598 
3.6              0.985799484088768 176.889599020207 
3.64             0.985486523429566 174.946161483279 
3.68             0.985174325300485 173.002460251421 
3.72             0.98486323226451 171.058339844572 
3.76             0.984553581511642 169.113641656032 
3.8              0.984245703573562 167.168204047589 
3.84             0.983939921052132 165.221862452016 
3.88             0.983636547367924 163.274449483207 
3.92             0.983335885535453 161.325795054184 
3.96             0.98303822697228 159.375726503252 
4                0.98274385034965 157.424068728501 
4.04             0.982453020492837 155.470644330888 
4.08             0.98216598733989 153.515273766065 
4.12             0.98188298496792 151.557775505118 
4.16             0.981604230696577 149.597966204311 
4.2              0.981329924278723 147.635660883916 
4.24             0.981060247188693 145.670673116126 
4.28             0.980795362018768 143.702815222001 
4.32             0.980535411994643 141.73189847734  
4.36             0.980280520620721 139.757733327263 
4.4              0.980030791465901 137.78012960924  
4.44             0.979786308100259 135.798896784189 
4.48             0.979547134192449 133.813844175193 
4.52             0.979313313777017 131.824781213261 
4.56             0.979084871699702 129.83151768949  
4.6              0.978861814247632 127.83386401285  
4.64             0.978644129969692 125.831631472745 
4.68             0.978431790690539 123.824632505387 
4.72             0.978224752719504 121.812680962946 
4.76             0.978022958253168 119.795592384331 
4.8              0.977826336967569 117.773184266448 
4.84             0.977634807792951 115.745276334661 
4.88             0.977448280860584 113.711690811211 
4.92             0.977266659607658 111.672252680308 
4.96             0.977089843022541 109.626789948653 
5                0.976917728008798 107.575133900162 
5.04             0.976750211842669 105.517119343807 
5.08             0.97658719469483 103.452584853526 
5.12             0.976428582183732 101.381372999368 
5.16             0.976274287924504 99.3033305691886 
5.2              0.976124236034529 97.2183087804333 
5.24             0.97597836355436 95.1261634817952 
5.28             0.975836622740996 93.0267553448087 
5.32             0.975698983189389 90.9199500457306 
5.36             0.975565433738003 88.8056184383765 
5.4              0.975435984114922 86.6836367188967 
5.44             0.975310666282725 84.5538865837985 
5.48             0.975189535443134 82.4162553828263 
5.52             0.975072670666143 80.2706362686089 
5.56             0.97496017511318 78.116928345236  
5.6              0.974852175829513 75.9550368181517 
5.64             0.97474882308775 73.7848731479202 
5.68             0.974650289271568 71.6063552105351 
5.72             0.974556767296793 69.4194074669814 
5.76             0.974468468575241 67.2239611447431 
5.8              0.974385620535366 65.0199544338343 
5.84             0.974308463722381 62.8073326997587 
5.88             0.974237248508843 60.5860487155359 
5.92             0.974172231454886 58.3560629145958 
5.96             0.974113671364518 56.1173436659377 
6                0.97406182509117 53.869867572475  
6.04             0.974016943151247 51.6136197929619 
6.08             0.973979265209106 49.3485943873247 
6.12             0.973949015500126 47.0747946846212 
6.16             0.973926398260777 44.7922336722272 
6.2              0.973911593235266 42.5009344042255 
6.24             0.97390475132792 40.2009304263535 
6.28             0.973905990468596 37.8922662142746 
6.32             0.973915391755558 35.5749976213721 
6.36             0.97393299593604 33.2491923317614 
6.4              0.973958800279758 30.9149303137506 
6.44             0.973992755894683 28.5723042685991 
6.48             0.974034765527715 26.2214200691006 
6.52             0.974084681885822 23.8623971822838 
6.56             0.974142306505525 21.4953690703666 
6.6              0.974207389190864 19.1204835640285 
6.64             0.974279628031972 16.737903202081  
6.68             0.974358670008513 14.3478055317102 
6.72             0.97444411217446 11.9503833636479 
6.76             0.974535503413119 9.54584497688038 
6.8              0.974632346744182 7.13441426783707 
6.84             0.974734102157779 4.71633083939872 
6.88             0.974840189944244 2.29185002552457 
6.92             0.974949994482565 -0.138757152182671 
6.96             0.975062868445348 -2.57520409908833 
7                0.975178137373568 -5.01718883582168 
7.04             0.975295104570523 -7.46439426211447 
7.08             0.975413056261157 -9.91648849737074 
7.12             0.975531266960399 -12.3731252984669 
7.16             0.975649004992286 -14.8339445545677 
7.2              0.97576553810049 -17.298572858044 
7.24             0.975880139090395 -19.766624149863 
7.28             0.975992091443052 -22.2377004371357 
7.32             0.976100694842281 -24.7113925798214 
7.36             0.976205270557671 -27.1872811429449 
7.4              0.976305166628454 -29.6649373100677 
7.44             0.976399762796007 -32.1439238531737 
7.48             0.976488475136078 -34.6237961536125 
7.52             0.976570760345752 -37.1041032682644 
7.56             0.97664611964454 -39.5843890346818 
7.6              0.976714102253731 -42.0641932086164 
7.64             0.976774308423354 -44.543052627059 
7.68             0.976826391981489 -47.0205023897163 
7.72             0.976870062386328 -49.4960770517157 
7.76             0.976905086267175 -51.9693118202715 
7.8              0.976931288446364 -54.4397437480676 
7.84             0.976948552439926 -56.9069129162025 
7.88             0.976956820440419 -59.3703635997109 
7.92             0.976956092790891 -61.8296454089086 
7.96             0.976946426964077 -64.2843144001078 
8                0.976927936065821 -66.7339341496105 
8.04             0.976900786886129 -69.178076785299 
8.08             0.976865197525246 -71.6163239706021 
8.12             0.976821434625651 -74.0482678361178 
8.16             0.976769810243746 -76.4735118547016 
8.2              0.97671067839743 -78.8916716563891 
8.24             0.97664443132756 -81.3023757800917 
8.28             0.97657149551248 -83.705266359586 
8.32             0.976492327475544 -86.0999997419005 
8.36             0.97640740942561 -88.4862470367745 
8.4              0.976317244770193 -90.8636945964323 
8.44             0.976222353540011 -93.2320444254507 
8.48             0.976123267762494 -95.5910145210226 
8.52             0.976020526820044 -97.9403391443965 
8.56             0.975914672826941 -100.279769024735 
8.6              0.975806246056483 -102.609071497039 
8.64             0.975695780447469 -104.928030576174 
8.68             0.975583799216499 -107.236446969342 
8.72             0.97547081059982 -109.534138029662 
8.76             0.97535730374562 -111.820937653746 
8.8              0.975243744774852 -114.096696126373 
8.84             0.975130573025921 -116.361279915508 
8.88             0.97501819749578 -118.614571421057 
8.92             0.974906993487449 -120.856468680817 
8.96             0.974797299471428 -123.086885037107 
9                0.97468941416623 -125.305748767628 
9.04             0.974583593841044 -127.513002684015 
9.08             0.974480049841661 -129.708603701554 
9.12             0.974378946339013 -131.892522383422 
9.16             0.974280398298135 -134.064742462741 
9.2              0.974184469664039 -136.22526034561 
9.24             0.974091171759843 -138.374084598145 
9.28             0.974000461891583 -140.51123542043 
9.32             0.973912242153375 -142.636744110116 
9.36             0.973826358426044 -144.75065251825 
9.4              0.973742599561926 -146.853012499755 
9.44             0.973660696748345 -148.943885360798 
9.48             0.973580323042124 -151.023341305141 
9.52             0.973501093067556 -153.091458881371 
9.56             0.973422562870385 -155.148324432767 
9.6              0.97334422992059 -157.194031551378 
9.64             0.973265533257088 -159.228680537751 
9.68             0.973185853767876 -161.252377867578 
9.72             0.97310451459955 -163.2652356664  
9.76             0.973020781690673 -165.267371193367 
9.8              0.972933864423946 -167.258906334925 
9.84             0.972842916392697 -169.239967109185 
9.88             0.972747036277754 -171.210683181611 
9.92             0.972645268831308 -173.171187392566 
9.96             0.972536605964907 -175.121615297178 
10               0.972419987939272 -177.06210471787 
10.04            0.972329771469512 -178.997269999504 
10.08            0.972229237507913 179.078554119016 
10.12            0.972120282274576 177.165083561909 
10.16            0.972004501270359 175.262032794243 
10.2             0.971883201500893 173.369116147683 
10.24            0.971757414887764 171.486049077667 
10.28            0.971627912810939 169.612549348913 
10.32            0.971495221729993 167.74833814569  
10.36            0.971359639832073 165.893141102776 
10.4             0.971221254651754 164.046689252571 
10.44            0.97107996160187 162.208719883355 
10.48            0.970935483345146 160.378977303328 
10.52            0.970787389924137 158.557213504787 
10.56            0.970635119551953 156.743188722666 
10.6             0.970477999948794 154.9366718817   
10.64            0.97031527009018 153.137440926743 
10.68            0.970146102212406 151.345283031212 
10.72            0.969969623900141 149.559994679361 
10.76            0.96978494006102 147.781381619072 
10.8             0.96959115457359 146.009258683085 
10.84            0.969387391379036 144.243449478062 
10.88            0.969172814774814 142.483785942637 
10.92            0.968946648660602 140.730107777496 
10.96            0.968708194484741 138.982261752625 
11               0.968456847643346 137.240100899042 
11.04            0.968192112095047 135.503483594549 
11.08            0.967913612972149 133.772272555204 
11.12            0.967621106993941 132.046333746275 
11.16            0.96731449051956 130.325535228316 
11.2             0.966993805115741 128.609745955569 
11.24            0.966659240557843 126.898834545149 
11.28            0.96631113522974 125.192668036291 
11.32            0.965949973937917 123.49111065934  
11.36            0.965576383205854 121.794022634019 
11.4             0.965191124164834 120.101259015928 
11.44            0.964795083204947 118.412668609135 
11.48            0.964389260593607 116.728092961133 
11.52            0.963974757306939 115.047365454516 
11.56            0.963552760350621 113.37031050735  
11.6             0.963124526870286 111.696742891694 
11.64            0.962691367366696 110.026467176898 
11.68            0.962254628337465 108.359277301485 
11.72            0.961815674665059 106.694956274548 
11.76            0.961375872060733 105.033276004858 
11.8             0.960936569856578 103.373997253262 
11.84            0.960499084414011 101.716869701647 
11.88            0.960064683387949 100.061632129701 
11.92            0.959634571052887 98.4080126890197 
11.96            0.959209874861434 96.7557292627915 
12               0.958791633368889 95.1044898983833 
12.04            0.958380785620408 93.453993299578  
12.08            0.957978162061266 91.8039293650371 
12.12            0.957584476996739 90.153979759702  
12.16            0.957200322596878 88.5038185062773 
12.2             0.956826164413596 86.8531125846312 
12.24            0.956462338353418 85.2015225278351 
12.28            0.956109049029153 83.5487030046099 
12.32            0.95576636939777 81.894303379104  
12.36            0.955434241579681 80.2379682401445 
12.4             0.95511247874642 78.5793378933519 
12.44            0.954800767958898 76.9180488107403 
12.48            0.954498673836811 75.2537340336206 
12.52            0.9542056429408  73.5860235257547 
12.56            0.953921008752386 71.9145444747555 
12.6             0.95364399714194 70.2389215406822 
12.64            0.95337373222169 68.5587770516265 
12.68            0.953109242488577 66.8737311468325 
12.72            0.952849467170356 65.1834018685244 
12.76            0.952593262697313 63.4874052041538 
12.8             0.952339409231164 61.7853550812114 
12.84            0.95208661719179 60.0768633170946 
12.88            0.951833533731345 58.3615395267881 
12.92            0.951578749113799 56.6389909913093 
12.96            0.95132080296596 54.90882249      
13               0.951058190373538 53.1706360998314 
13.04            0.950789367802642 51.4240309649275 
13.08            0.9505127588334  49.6686030395181 
13.12            0.950226759698009 47.9039448075242 
13.16            0.949929744620581 46.1296449819386 
13.2             0.949620070960605 44.3452881871351 
13.24            0.949296084165786 42.5504546271968 
13.28            0.948956122543451 40.744719743317  
13.32            0.948598521862686 38.9276538633061 
13.36            0.948221619801977 37.0988218462266 
13.4             0.947823760259303 35.2577827251825 
13.44            0.947403297543591 33.4040893513274 
13.48            0.946958600468055 31.5372880422046 
13.52            0.94648805636735 29.6569182376188 
13.56            0.945990075061734 27.7625121663552 
13.6             0.945463092792416 25.8535945272002 
13.64            0.944905576153267 23.9296821879055 
13.68            0.944316026044792 21.9902839059489 
13.72            0.943692981677016 20.0349000751951 
13.76            0.94303502464848 18.0630225028534 
13.8             0.942340783129086 16.0741342214567 
13.84            0.9416089361749  14.0677093409513 
13.88            0.940838218203307 12.0432129464    
13.92            0.940027423657088 10.000101047243  
13.96            0.939175411885934 7.93782058455285 
14               0.938281112273761 5.85580950323789 
14.04            0.937343529639684 3.75349689671807 
14.08            0.936361749939821 1.63030323218293 
14.12            0.935334946295958 -0.514359334828458 
14.16            0.934262385375601 -2.68108654713617 
14.2             0.93314343414591 -4.87048152386302 
14.24            0.931977567021332 -7.08315411887474 
14.28            0.930764373421432 -9.31972014830266 
14.32            0.929503565751244 -11.5808004750671 
14.36            0.928194987811328 -13.867019937676 
14.4             0.92683862363857 -16.1790061099855 
14.44            0.925434606771351 -18.5173878780764 
14.48            0.923983229923998 -20.8827938199711 
14.52            0.922484955045244 -23.2758503736056 
14.56            0.92094042372361 -25.6971797783204 
14.6             0.919350467889135 -28.1473977751787 
14.64            0.917716120745565 -30.6271110517119 
14.68            0.916038627849954 -33.1369144172739 
14.72            0.914319458237537 -35.6773876961083 
14.76            0.912560315468906 -38.2490923265721 
14.8             0.910763148453816 -40.8525676567554 
14.84            0.908930161881817 -43.488326929075 
14.88            0.90706382606447 -46.1568529493519 
14.92            0.905166885967647 -48.8585934394833 
14.96            0.903242369185918 -51.5939560771467 
15               0.901293592584911 -54.3633032310792 
15.04            0.899324167312813 -57.1669464063987 
15.08            0.897338001859725 -60.0051404212154 
15.12            0.895339302824828 -62.8780773433954 
15.16            0.89333257303743 -65.7858802247952 
15.2             0.891322606670671 -68.7285966794792 
15.24            0.889314480987466 -71.7061923623041 
15.28            0.887313544368904 -74.7185444146165 
15.32            0.885325400297496 -77.7654349544613 
15.36            0.883355887002926 -80.8465446993878 
15.4             0.881411052527639 -83.9614468203204 
15.44            0.879497125034761 -87.1096011346363 
15.48            0.877620478262072 -90.2903487551537 
15.52            0.875787592122833 -93.502907318646 
15.56            0.874005008566652 -96.7463669222646 
15.6             0.872279282939298 -100.019686898345 
15.64            0.870616931217102 -103.321693556963 
15.68            0.869024373635514 -106.651079020829 
15.72            0.867507875378022 -110.006401268292 
15.76            0.866073485135569 -113.386085487093 
15.8             0.86472697248151 -116.788426823937 
15.84            0.863473765126613 -120.211594593088 
15.88            0.862318887215619 -123.653637981216 
15.92            0.861266899895117 -127.112493256311 
15.96            0.860321845416083 -130.585992456225 
16               0.85948719602864 -134.071873498434 
16.04            0.858765808878443 -137.567791617964 
16.08            0.858159888022202 -141.071332006429 
16.12            0.857670954545447 -144.580023493172 
16.16            0.857299825591592 -148.091353080874 
16.2             0.857046602903598 -151.602781123944 
16.24            0.856910671245135 -155.111756919732 
16.28            0.856890706816562 -158.615734470785 
16.32            0.856984695522345 -162.112188171676 
16.36            0.857189960691655 -165.59862817654 
16.4             0.857503199613287 -169.072615213198 
16.44            0.8579205280298  -172.531774626178 
16.48            0.858437531552123 -175.973809453237 
16.52            0.859049322811571 -179.396512367199 
16.56            0.859750603065544 177.202223654318 
16.6             0.860535726918287 173.824396035554 
16.64            0.861398768808594 170.471884755797 
16.68            0.862333589949754 167.146445985479 
16.72            0.863333904479107 163.849707209175 
16.76            0.864393343679374 160.583163809641 
16.8             0.865505517264765 157.348177060383 
16.84            0.866664070874268 154.145973451441 
16.88            0.867862739075358 150.977645254404 
16.92            0.869095393346202 147.844152218333 
16.96            0.870356084667349 144.746324278117 
17               0.871639080508991 141.684865150684 
17.04            0.872938896143042 138.66035669205  
17.08            0.874250320337101 135.673263889013 
17.12            0.875568435597573 132.723940362845 
17.16            0.876888633220918 129.812634268206 
17.2             0.87820662348456 126.939494478077 
17.24            0.879518441363441 124.104576954371 
17.28            0.880820448195159 121.30785121361  
17.32            0.882109329738121 118.549206807178 
17.36            0.883382091074808 115.828459745948 
17.4             0.884636048808146 113.145358809169 
17.44            0.885868820985316 110.499591687205 
17.48            0.887078315161967 107.890790916896 
17.52            0.888262714992792 105.318539576777 
17.56            0.889420465703362 102.782376717139 
17.6             0.890550258764661 100.281802506863 
17.64            0.891651016057081 97.8162830851059 
17.68            0.892721873775974 95.385255111253  
17.72            0.893762166296896 92.9881300111779 
17.76            0.894771410186269 90.6242979217057 
17.8             0.895749288512731 88.2931313384139 
17.84            0.89669563558624 85.9939884745078 
17.88            0.8976104222264  83.7262163405874 
17.92            0.898493741638395 81.4891535567114 
17.96            0.899345795954527 79.2821329093352 
18               0.900166883481451 77.1044836664979 
18.04            0.90095738667778 74.9555336651353 
18.08            0.901717760873556 72.8346111846176 
18.12            0.902448523732083 70.7410466206233 
18.16            0.903150245445449 68.6741739732995 
18.2             0.903823539647679 66.6333321633406 
18.24            0.904469055023641 64.6178661892034 
18.28            0.905087467587229 62.6271281381627 
18.32            0.905679473599095 60.6604780633489 
18.36            0.906245783091777 58.7172847382917 
18.4             0.906787113968644 56.7969262998587 
18.44            0.907304186642261 54.8987907898252 
18.48            0.907797719177638 53.0222766046609 
18.52            0.908268422906075 51.1667928624681 
18.56            0.908716998476072 49.3317596953823 
18.6             0.909144132308696 47.5166084751271 
18.64            0.909550493426091 45.72078197883   
18.68            0.909936730623138 43.9437345016441 
18.72            0.910303469953871 42.1849319221893 
18.76            0.910651312505776 40.4438517263155 
18.8             0.910980832436778 38.7199829942284 
18.84            0.911292575251344 37.0128263555671 
18.88            0.911587056293775 35.32189391661   
18.92            0.911864759438365 33.6467091634068 
18.96            0.912126135957645 31.9868068442739 
19               0.912371603551474 30.3417328347593 
19.04            0.912601545521136 28.7110439878875 
19.08            0.912816310074018 27.0943079722075 
19.12            0.913016209745716 25.4911030999154 
19.16            0.913201520927678 23.9010181470876 
19.2             0.913372483489612 22.3236521678455 
19.24            0.913529300487036 20.7586143040763 
19.28            0.913672137945277 19.2055235921572 
19.32            0.913801124712279 17.6640087679668 
19.36            0.913916352373358 16.1337080713196 
19.4             0.914017875221952 14.6142690508265 
19.44            0.914105710281101 13.1053483700615 
19.48            0.914179837371179 11.6066116158067 
19.52            0.91424019921995 10.1177331090433 
19.56            0.914286701611722 8.6383957192732  
19.6             0.91431921357287 7.1682906826695  
19.64            0.914337567591511 5.7071174244802  
19.68            0.914341559869627 4.25458338604841 
19.72            0.914330950606321 2.81040385674697 
19.76            0.914305464311303 1.37430181107311 
19.8             0.914264790148081 -0.0539922488967938 
19.84            0.914208582306642 -1.47474044554074 
19.88            0.914136460405732 -2.88819767209898 
19.92            0.914048009925094 -4.29461173337646 
19.96            0.913942782668301 -5.69422348069479 
20               0.913820297257026 -7.08726694107866 
