! Touchstone file from project TestMultiLine
! Exported from HFSS 14.0.0
! Variables:
!  gap = 0mm
!  hair = 35mm
!  hsub = 0.762mm
!  l = 28mm
!  lair = 40mm
!  lmic = 14mm
!  w = 25mm
!  wair = 40mm
!  wmic = 2.1mm
!Data is not renormalized
# GHZ S MA
! Modal data exported
! Port[1] = 1:1
1                0.995373919734934 125.187365075556 
1.04             0.995276957106443 122.972396717093 
1.08             0.995177371685327 120.754922206468 
1.12             0.995075295896618 118.534871888427 
1.16             0.994970866305796 116.312179245171 
1.2              0.99486422348436 114.086781028122 
1.24             0.994755511864184 111.858617390137 
1.28             0.994644879580222 109.627632017953 
1.32             0.994532478301103 107.39377226464  
1.36             0.99441846304724 105.1569892818   
1.4              0.994302991996072 102.917238151266 
1.44             0.994186226274126 100.674478015976 
1.48             0.994068329735614 98.4286722097277 
1.52             0.99394946872735 96.1797883854599 
1.56             0.99382981183982 93.9277986417131 
1.6              0.99370952964429 91.672679646877  
1.64             0.993588794415939 89.4144127608294 
1.68             0.993467779843046 87.1529841535414 
1.72             0.993346660722355 84.8883849202093 
1.76             0.993225612640818 82.6206111924568 
1.8              0.993104811644028 80.3496642451302 
1.84             0.992984433891712 78.0755505982019 
1.88             0.992864655300785 75.7982821132786 
1.92             0.992745651176551 73.5178760842027 
1.96             0.992627595832751 71.2343553212277 
2                0.992510662201244 68.9477482282396 
2.04             0.992395021432259 66.6580888724958 
2.08             0.992280842486211 64.3654170463495 
2.12             0.99216829171824 62.0697783204319 
2.16             0.992057532456686 59.7712240877683 
2.2              0.991948724576875 57.4698115983142 
2.24             0.991842024071646 55.1656039834091 
2.28             0.991737582620196 52.8586702696595 
2.32             0.991635547156867 50.5490853817852 
2.36             0.991536059441638 48.2369301339833 
2.4              0.991439255634124 45.9222912093918 
2.44             0.991345265872991 43.6052611272645 
2.48             0.991254213862733 41.2859381975059 
2.52             0.991166216469835 38.9644264622466 
2.56             0.991081383330358 36.6408356241896 
2.6              0.990999816471044 34.3152809614938 
2.64             0.990921609946019 31.9878832290169 
2.68             0.990846849491202 29.6587685457855 
2.72             0.990775612198479 27.3280682686183 
2.76             0.990707966211707 24.9959188518826 
2.8              0.990643970446524 22.6624616934235 
2.84             0.990583674335907 20.3278429667672 
2.88             0.990527117603326 17.9922134397608 
2.92             0.990474330065225 15.6557282798758 
2.96             0.990425331464468 13.3185468464633 
3                0.990380131336264 10.9808324703181 
3.04             0.990338728907882 8.64275222096784 
3.08             0.990301113033371 6.3044766621686  
3.12             0.990267262164285 3.96617959615097 
3.16             0.990237144357217 1.62803779721733 
3.2              0.99021071731878 -0.70976926464763 
3.24             0.990187928488426 -3.04705970944037 
3.28             0.990168715159297 -5.38364954130831 
3.32             0.990153004637074 -7.71935295041398 
3.36             0.990140714436571 -10.0539826216351 
3.4              0.990131752515557 -12.3873500492068 
3.44             0.990126017545121 -14.7192658563753 
3.48             0.990123399215603 -17.0495401191063 
3.52             0.990123778576946 -19.3779826928669 
3.56             0.990127028412074 -21.704403541484 
3.6              0.990133013641714 -24.0286130670693 
3.64             0.99014159175888 -26.3504224399974 
3.68             0.990152613291046 -28.6696439279245 
3.72             0.990165922287897 -30.9860912228395 
3.76             0.990181356832348 -33.2995797651571 
3.8              0.990198749572446 -35.609927063875 
3.84             0.990217928271585 -37.9169530118502 
3.88             0.990238716374454 -40.2204801952695 
3.92             0.990260933585969 -42.5203341964349 
3.96             0.99028439646047 -44.816343889015 
4                0.990308918998371 -47.108341724967 
4.04             0.990334313247469 -49.3961640123745 
4.08             0.990360389906121 -51.6796511835062 
4.12             0.990386958925516 -53.9586480524485 
4.16             0.990413830108336 -56.2330040617313 
4.2              0.990440813701149 -58.5025735174196 
4.24             0.990467720977971 -60.7672158122096 
4.28             0.990494364812537 -63.0267956361318 
4.32             0.990520560236928 -65.2811831745241 
4.36             0.990546124984343 -67.5302542930073 
4.4              0.990570880013931 -69.7738907092538 
4.44             0.990594650015757 -72.0119801514092 
4.48             0.990617263894154 -74.2444165030849 
4.52             0.990638555227839 -76.4710999349012 
4.56             0.990658362705375 -78.6919370226211 
4.6              0.990676530534745 -80.9068408519683 
4.64             0.990692908825909 -83.1157311102811 
4.68             0.990707353945513 -85.318534165199 
4.72             0.990719728842983 -87.515183130634 
4.76             0.990729903347432 -89.7056179203174 
4.8              0.990737754435057 -91.8897852892567 
4.84             0.990743166466731 -94.0676388634765 
4.88             0.990746031395768 -96.239139158448 
4.92             0.990746248945917 -98.4042535866453 
4.96             0.990743726759797 -100.562956454693 
5                0.99073838051814 -102.715228950589 
5.04             0.990730134030273 -104.861059121517 
5.08             0.990718919296459 -107.000441842758 
5.12             0.990704676542731 -109.133378778254 
5.16             0.990687354229003 -111.259878333353 
5.2              0.99066690903131 -113.379955600295 
5.24             0.990643305799051 -115.493632296988 
5.28             0.990616517488255 -117.600936699636 
5.32             0.990586525071844 -119.701903569759 
5.36             0.990553317427964 -121.796574076164 
5.4              0.990516891207461 -123.884995712394 
5.44             0.990477250681615 -125.9672222102  
5.48             0.990434407571218 -128.043313449535 
5.52             0.990388380858148 -130.113335365596 
5.56             0.990339196580512 -132.177359853391 
5.6              0.990286887612486 -134.23546467031 
5.64             0.990231493429911 -136.287733337153 
5.68             0.99017305986273 -138.334255038066 
5.72             0.99011163883528 -140.375124519789 
5.76             0.990047288095429 -142.410441990632 
5.8              0.989980070933562 -144.440313019538 
5.84             0.989910055892287 -146.464848435622 
5.88             0.989837316467783 -148.484164228489 
5.92             0.989761930803633 -150.498381449675 
5.96             0.989683981377894 -152.507626115493 
6                0.98960355468421 -154.512029111563 
6.04             0.989520740907623 -156.511726099266 
6.08             0.989435633595768 -158.506857424379 
6.12             0.989348329326051 -160.497568028073 
6.16             0.989258927369375 -162.484007360483 
6.2              0.989167529350931 -164.466329297012 
6.24             0.989074238908534 -166.444692057518 
6.28             0.988979161348945 -168.419258128522 
6.32             0.988882403302567 -170.390194188541 
6.36             0.988784072376868 -172.357671036633 
6.4              0.988684276808881 -174.321863524246 
6.44             0.988583125117037 -176.282950490405 
6.48             0.988480725752629 -178.241114700297 
6.52             0.988377186751118 179.803457212749 
6.56             0.98827261538352 177.850574801859 
6.6              0.988167117808041 175.900043857822 
6.64             0.988060798722178 173.951666456923 
6.68             0.987953761015423 172.005241005461 
6.72             0.987846105422748 170.060562280998 
6.76             0.987737930179034 168.11742147044  
6.8              0.987629330674595 166.175606205023 
6.84             0.987520399111975 164.234900592328 
6.88             0.987411224164184 162.295085245457 
6.92             0.987301890634583 160.355937309506 
6.96             0.987192479118623 158.417230485494 
7                0.987083065667674 156.47873505195  
7.04             0.98697372145525 154.540217884331 
7.08             0.986864512445899 152.601442472495 
7.12             0.986755499067162 150.662168936478 
7.16             0.986646735884977 148.722154040811 
7.2              0.986538271283019 146.781151207668 
7.24             0.986430147146503 144.838910529132 
7.28             0.986322398551059 142.895178778912 
7.32             0.986215053457378 140.949699423847 
7.36             0.986108132412392 139.002212635564 
7.4              0.986001648257897 137.052455302698 
7.44             0.985895605847567 135.100161044085 
7.48             0.985790001773516 133.145060223388 
7.52             0.985684824103591 131.186879965632 
7.56             0.985580052130801 129.225344176174 
7.6              0.985475656136395 127.260173562649 
7.64             0.985371597168269 125.291085660472 
7.68             0.985267826836541 123.317794862533 
7.72             0.98516428712838 121.340012453736 
7.76             0.985060910244239 119.357446651084 
7.8              0.984957618458026 117.369802650055 
7.84             0.984854324003787 115.376782678074 
7.88             0.984750928991853 113.37808605589  
7.92             0.984647325357555 111.373409267772 
7.96             0.9845433948459  109.362446041441 
8                0.984439009035871 107.344887438731 
8.04             0.984334029408252 105.32042195802  
8.08             0.984228307461235 103.288735649526 
8.12             0.984121684878275 101.249512244615 
8.16             0.984013993752997 99.2024333003288 
8.2              0.983905056876275 97.1471783603965 
8.24             0.983794688090832 95.0834251340415 
8.28             0.983682692719118 93.0108496939663 
8.32             0.983568868070386 90.9291266949351 
8.36             0.983453004033271 88.8379296144388 
8.4              0.983334883760358 86.7369310169691 
8.44             0.983214284451531 84.6258028434778 
8.48             0.983090978243033 82.5042167276373 
8.52             0.982964733209426 80.3718443405533 
8.56             0.982835314485672 78.2283577656102 
8.6              0.982702485516719 76.0734299051479 
8.64             0.982566009441892 73.90673492068   
8.68             0.982425650621413 71.7279487083599 
8.72             0.982281176312133 69.5367494113877 
8.76             0.982132358499334 67.3328179710178 
8.8              0.981978975891093 65.1158387177795 
8.84             0.981820816081126 62.8855000044539 
8.88             0.981657677885454 60.6414948822594 
8.92             0.981489373857313 58.3835218215818 
8.96             0.981315732983807 56.1112854784423 
9                0.981136603566554 53.8244975077196 
9.04             0.980951856287129 51.5228774239437 
9.08             0.980761387456534 49.2061535102254 
9.12             0.980565122445986 46.8740637756167 
9.16             0.980363019294183 44.5263569608657 
9.2              0.980155072483806 42.1627935921759 
9.24             0.979941316877361 39.7831470821616 
9.28             0.979721831799514 37.3872048767421 
9.32             0.979496745249894 34.9747696462104 
9.36             0.979266238226888 32.5456605181624 
9.4              0.979030549139257 30.0997143493724 
9.44             0.978789978278575 27.6367870330541 
9.48             0.978544892321368 25.156754837255  
9.52             0.97829572882575 22.6595157693966 
9.56             0.978043000683032 20.1449909612035 
9.6              0.977787300480599 17.6131260674602 
9.64             0.977529304728188 15.0638926712096 
9.68             0.97726977789571 12.4972896871535 
9.72             0.977009576207045 9.91334475418357 
9.76             0.976749651130963 7.31211560711229 
9.8              0.976491052507445 4.69369141686321 
9.84             0.976234931245549 2.05819408759158 
9.88             0.975982541527505 -0.594220501521643 
9.92             0.97573524245323 -3.26336132272342 
9.96             0.975494499059905 -5.94900110786653 
10               0.975261882652927 -8.65087535225242 
10.04            0.97511407742661 -11.3626677297072 
10.08            0.974956580465672 -14.0910698082303 
10.12            0.974790430689449 -16.8356708835771 
10.16            0.974616666310196 -19.5960206804563 
10.2             0.974436322230055 -22.3716289870476 
10.24            0.974250427290006 -25.1619654790079 
10.28            0.97406000138424 -27.9664597460411 
10.32            0.973866052456725 -30.7845015328366 
10.36            0.973669573400028 -33.6154412046484 
10.4             0.973471538879635 -36.4585904459703 
10.44            0.973272902110064 -39.3132231987028 
10.48            0.973074591611774 -42.1785768438996 
10.52            0.972877507980312 -45.0538536286642 
10.56            0.972682520701035 -47.9382223370752 
10.6             0.972490465044216 -50.8308202011836 
10.64            0.972302139076113 -53.7307550451987 
10.68            0.9721183008218  -56.637107653023 
10.72            0.971939665614987 -59.5489343463431 
10.76            0.971766903668844 -62.465269757621 
10.8             0.971600637899819 -65.3851297795967 
10.84            0.971441442033782 -68.3075146703803 
10.88            0.971289839020475 -71.2314122909298 
10.92            0.971146299778233 -74.1558014497442 
10.96            0.971011242286518 -77.0796553279772 
11               0.97088503103881 -80.0019449569569 
11.04            0.970767976863229 -82.9216427192937 
11.08            0.970660337112809 -85.8377258443988 
11.12            0.970562316221874 -88.7491798693326 
11.16            0.970474066619577 -91.6550020364407 
11.2             0.970395689986492 -94.554204600216 
11.24            0.970327238835255 -97.4458180172185 
11.28            0.970268718391928 -100.328893994649 
11.32            0.970220088750795 -103.202508375276 
11.36            0.970181267272164 -106.06576383882 
11.4             0.970152131190107 -108.917792402491 
11.44            0.970132520395268 -111.757757706208 
11.48            0.970122240356711 -114.584857070902 
11.52            0.970121065146401 -117.39832332128 
11.56            0.970128740530168 -120.19742636738 
11.6             0.970144987089945 -122.981474542124 
11.64            0.97016950334357 -125.749815694886 
11.68            0.970201968830447 -128.501838043671 
11.72            0.970242047133856 -131.23697079098 
11.76            0.970289388813406 -133.954684510613 
11.8             0.970343634224264 -136.654491314622 
11.84            0.970404416202932 -139.335944811347 
11.88            0.970471362602679 -141.998639866857 
11.92            0.970544098665025 -144.642212183311 
11.96            0.970622249216904 -147.266337708589 
12               0.970705440686281 -149.870731892208 
12.04            0.970793302931904 -152.455148802885 
12.08            0.970885470885615 -155.019380123259 
12.12            0.970981586008125 -157.563254037231 
12.16            0.971081297561354 -160.086634025116 
12.2             0.971184263702393 -162.58941758139 
12.24            0.971290152405747 -165.071534869285 
12.28            0.971398642221922 -167.532947325764 
12.32            0.971509422881481 -169.973646229706 
12.36            0.97162219575454 -172.393651245255 
12.4             0.971736674176235 -174.793008951423 
12.44            0.971852583649098 -177.171791368109 
12.48            0.971969661933402 -179.530094487794 
12.52            0.972087659036561 178.131963178802 
12.56            0.972206337112494 175.814242035681 
12.6             0.972325470281571 173.516582806669 
12.64            0.972444844381372 171.23880790698  
12.68            0.972564256658009 168.980722776465 
12.72            0.972683515407202 166.742117170439 
12.76            0.97280243957373 164.522766404808 
12.8             0.972920858317225 162.322432552799 
12.84            0.973038610551659 160.140865591268 
12.88            0.973155544465221 157.977804495113 
12.92            0.973271517026609 155.832978278795 
12.96            0.973386393483194 153.706106984474 
13               0.97350004685583 151.596902616635 
13.04            0.973612357434565 149.505070023446 
13.08            0.973723212278913 147.4303077254   
13.12            0.973832504725858 145.372308692061 
13.16            0.973940133908239 143.330761067947 
13.2             0.974046004285759 141.305348848786 
13.24            0.974150025190426 139.295752509532 
13.28            0.974252110387843 137.30164958563  
13.32            0.974352177655462 135.322715209147 
13.36            0.974450148378571 133.358622601434 
13.4             0.974545947164536 131.409043524025 
13.44            0.974639501475551 129.473648689528 
13.48            0.974730741279955 127.552108134253 
13.52            0.974819598721976 125.644091554321 
13.56            0.974906007809584 123.749268606991 
13.6             0.974989904120023 121.867309178887 
13.64            0.975071224522434 119.997883622794 
13.68            0.975149906916901 118.140662964633 
13.72            0.975225889989158 116.295319082154 
13.76            0.975299112980113 114.46152485687  
13.8             0.975369515469292 112.63895430064  
13.84            0.975437037171257 110.827282658287 
13.88            0.975501617744009 109.026186487532 
13.92            0.975563196608349 107.235343717487 
13.96            0.975621712777152 105.454433686853 
14               0.975677104693489 103.683137162912 
14.04            0.975729310076513 101.921136342324 
14.08            0.975778265774012 100.168114834676 
14.12            0.975823907620524 98.4237576296425 
14.16            0.975866170299904 96.6877510485772 
14.2             0.975904987211222 94.9597826812522 
14.24            0.975940290336858 93.2395413084223 
14.28            0.975972010111667 91.5267168108108 
14.32            0.976000075292068 89.8210000650525 
14.36            0.976024412823896 88.1220828270707 
14.4             0.976044947707855 86.4296576032953 
14.44            0.976061602861384 84.7434175100768 
14.48            0.976074298975735 83.0630561215875 
14.52            0.976082954367031 81.3882673064439 
14.56            0.976087484820064 79.718745053229  
14.6             0.97608780342352 78.0541832850358 
14.64            0.976083820395339 76.3942756630994 
14.68            0.976075442896822 74.7387153795305 
14.72            0.976062574834078 73.0871949391091 
14.76            0.97604511664533 71.4394059300441 
14.8             0.976022965072566 69.7950387835514 
14.84            0.975996012915908 68.1537825220493 
14.88            0.975964148769021 66.515324495718  
14.92            0.975927256733805 64.8793501071155 
14.96            0.975885216112474 63.245542523487  
15               0.975837901075064 61.6135823763529 
15.04            0.975785180300272 59.9831474479024 
15.08            0.975726916587386 58.3539123436626 
15.12            0.975662966436949 56.7255481508577 
15.16            0.975593179597618 55.0977220818098 
15.2             0.975517398576526 53.4700971016729 
15.24            0.975435458110253 51.8423315397314 
15.28            0.975347184593309 50.2140786834215 
15.32            0.975252395460826 48.5849863541763 
15.36            0.975150898521887 46.9546964641175 
15.4             0.975042491239674 45.3228445525472 
15.44            0.974926959954333 43.6890593011189 
15.48            0.97480407904413 42.0529620264871 
15.52            0.97467361002016 40.4141661491532 
15.56            0.974535300549478 38.7722766371445 
15.6             0.974388883401177 37.1268894230711 
15.64            0.974234075309468 35.4775907930193 
15.68            0.974070575747403 33.8239567456439 
15.72            0.97389806560439 32.1655523197281 
15.76            0.973716205760123 30.5019308883778 
15.8             0.973524635546995 28.8326334179175 
15.84            0.973322971092503 27.1571876894534 
15.88            0.97311080353249 25.4751074809621 
15.92            0.97288769708543 23.7858917076588 
15.96            0.97265318697728 22.0890235182982 
16               0.972406777205658 20.383969344955  
16.04            0.972147938131386 18.670177903732  
16.08            0.971876103884642 16.9470791437557 
16.12            0.971590669572151 15.2140831417279 
16.16            0.971290988271054 13.4705789392273 
16.2             0.970976367794289 11.7159333199038 
16.24            0.970646067211506 9.94948952365481 
16.28            0.970299293108819 8.17056589486492 
16.32            0.969935195569989 6.37845446180136 
16.36            0.969552863861061 4.5724194443094  
16.4             0.969151321800014 2.75169568704951 
16.44            0.968729522792728 0.915487015677939 
16.48            0.968286344516558 -0.93703548640234 
16.52            0.967820583233111 -2.8067352827833 
16.56            0.967330947712573 -4.69451227192537 
16.6             0.966816052753172 -6.60130475927119 
16.64            0.966274412281334 -8.5280915140139 
16.68            0.96570443202085 -10.4758939100684 
16.72            0.965104401723192 -12.4457781497206 
16.76            0.964472486956225 -14.4388575671027 
16.8             0.963806720455208 -16.4562950070195 
16.84            0.963104993048577 -18.4993052726872 
16.88            0.96236504418183 -20.5691576335712 
16.92            0.961584452076534 -22.6671783816567 
16.96            0.960760623578371 -24.7947534210866 
17               0.95989078376911 -26.9533308720511 
17.04            0.958971965442918 -29.1444236650274 
17.08            0.958000998578488 -31.369612095819 
17.12            0.956974499975942 -33.6305463052274 
17.16            0.955888863272279 -35.9289486394543 
17.2             0.954740249602505 -38.2666158383391 
17.24            0.953524579236582 -40.6454209881378 
17.28            0.952237524596047 -43.0673151635894 
17.32            0.950874505139901 -45.5343286703192 
17.36            0.949430684707872 -48.0485717830859 
17.4             0.947900972021366 -50.612234857834 
17.44            0.946280025168443 -53.22758767589  
17.48            0.944562261038698 -55.8969778569205 
17.52            0.942741870825542 -58.6228281534871 
17.56            0.940812842874421 -61.4076324143711 
17.6             0.938768994321345 -64.2539499766337 
17.64            0.936604013129836 -67.1643982181678 
17.68            0.934311512285986 -70.1416429740976 
17.72            0.93188509803711 -73.1883864929641 
17.76            0.92931845414127 -76.3073525837922 
17.8             0.92660544410937 -79.50126858492  
17.84            0.923740233340001 -82.7728437726238 
17.88            0.920717432835125 -86.1247438253836 
17.92            0.917532265802772 -89.5595609721597 
17.96            0.914180757858257 -93.0797794850845 
18               0.910659950684198 -96.6877362338915 
18.04            0.906968137862082 -100.385576107135 
18.08            0.903105120114213 -104.175202229943 
18.12            0.899072475383318 -108.058221075558 
18.16            0.894873837045773 -112.035882783223 
18.2             0.890515171161641 -116.10901726134 
18.24            0.886005041121968 -120.277966972472 
18.28            0.881354845534329 -124.542517661849 
18.32            0.876579012932372 -128.901828693968 
18.36            0.871695135207428 -133.354365086091 
18.4             0.866724020891068 -137.897833748066 
18.44            0.861689649932543 -142.529126821525 
18.48            0.85661901374782 -147.244275316286 
18.52            0.851541828306654 -152.038416419624 
18.56            0.846490113946702 -156.905777853978 
18.6             0.841497643307068 -161.839682432762 
18.64            0.836599267834296 -166.83257547441 
18.68            0.83183014302708 -171.876076962885 
18.72            0.827224882010876 -176.961059297157 
18.76            0.822816675089072 177.922249804876 
18.8             0.818636418530596 172.784141111781 
18.84            0.814711898133726 167.635277725727 
18.88            0.811067071511562 162.486533675749 
18.92            0.80772148751061 157.348823093181 
18.96            0.804689872156017 152.232926566502 
19               0.801981898947155 147.149321567741 
19.04            0.799602148474331 142.108023626942 
19.08            0.797550249598718 137.118444221395 
19.12            0.795821183156053 132.189270217778 
19.16            0.794405720356816 127.328368281076 
19.2             0.793290962398473 122.542716094543 
19.24            0.792460945463258 117.838360674986 
19.28            0.791897276014064 113.220402654942 
19.32            0.791579764568583 108.693004241693 
19.36            0.791487031190508 104.259417714181 
19.4             0.791597061995886 99.9220308015192 
19.44            0.791887702303835 95.682425082705  
19.48            0.792337078071768 91.5414436114943 
19.52            0.792923942527986 87.499264242415  
19.56            0.793627949208037 83.5554755484302 
19.6             0.794429855829495 79.7091527157592 
19.64            0.795311665637698 75.9589313240042 
19.68            0.796256714136318 72.3030774290334 
19.72            0.79724970964187 68.7395528332584 
19.76            0.798276736043388 65.266074835736  
19.8             0.799325225675671 61.8801700949279 
19.84            0.800383909474159 58.5792225090924 
19.88            0.801442750693269 55.3605152272503 
19.92            0.802492867531799 52.2212670544805 
19.96            0.803526449086043 49.1586636174482 
20               0.804536668188985 46.1698837183791 
