! Touchstone file from project TestMultiLine
! Exported from HFSS 14.0.0
! Variables:
!  gap = 0mm
!  hair = 35mm
!  hsub = 0.762mm
!  l = 28mm
!  lair = 40mm
!  lmic = 14mm
!  w = 25mm
!  wair = 40mm
!  wmic = 2.1mm
!Data is not renormalized
# GHZ S MA
! Modal data exported
! Port[1] = 1:1
! Port[2] = 2:1
1                0.00794740749478795 -30.5089025304306 0.997642146735658 -25.2018072149525 0.997642146735812 -25.2018072149526 0.00566615067372723 151.198013906304 
1.04             0.00830173341211093 -32.6793003570283 0.997559517106875 -26.2086415496905 0.997559517103966 -26.2086415498675 0.00595943635009964 151.708164330813 
1.08             0.00866586494072217 -34.8548318485996 0.997474653874381 -27.2153262974448 0.997474653867884 -27.2153262977851 0.00625937412291191 152.175386847151 
1.12             0.00903952182757508 -37.0327104277427 0.997387716611286 -28.2218670439196 0.997387716600721 -28.2218670444045 0.00656565939910676 152.604153222153 
1.16             0.00942241483209226 -39.2106106132466 0.997298843343138 -29.2282697206609 0.997298843328086 -29.2282697212664 0.00687798216947162 152.998340650129 
1.2              0.00981424448325159 -41.3866055209348 0.997208148646984 -30.2345405479039 0.997208148627107 -30.2345405486016 0.00719602929645397 153.361318129775 
1.24             0.0102146998284849 -43.5591112659696 0.997115721754315 -31.2406859177943 0.997115721729373 -31.2406859185515 0.0075194864034931 153.696017714146 
1.28             0.0106234571685595 -45.7268377217338 0.997021624856105 -32.2467122203455 0.997021624825974 -32.2467122211268 0.00784803943511156 154.004993673139 
1.32             0.0110401787786151 -47.8887450388608 0.996925891831033 -33.2526256149884 0.996925891795718 -33.2526256157565 0.00818137594227312 154.290471931797 
1.36             0.0114645116208914 -50.0440053219842 0.996828527639276 -34.2584317522371 0.996828527598923 -34.2584317529542 0.00851918613646595 154.554391633758 
1.4              0.0118960860594684 -52.1919688841474 0.996729508638823 -35.2641354526856 0.996729508593721 -35.2641354533154 0.00886116374762699 154.798440286296 
1.44             0.0123345145916053 -54.3321345377763 0.996628784082582 -36.2697403542685 0.996628784033162 -36.269740354778 0.00920700671467083 155.024083641118 
1.48             0.0127793906140517 -56.4641234287162 0.996526279035629 -37.2752485431774 0.996526278982456 -37.2752485435383 0.00955641773250429 155.232591231367 
1.52             0.0132302872460464 -58.5876559708435 0.996421898905613 -38.2806601887334 0.996421898849363 -38.2806601889244 0.00990910467561695 155.425058303274 
1.56             0.0136867562336404 -60.7025314898182 0.996315535699935 -39.2859732072426 0.996315535641371 -39.2859732072507 0.010264780915359 155.602424738557 
1.6              0.0141483269624643 -62.8086102336082 0.996207076008227 -40.2911829837254 0.996207075948161 -40.2911829835474 0.0106231655456499 155.765491451525 
1.64             0.0146145056080965 -64.9057974533045 0.996096410560204 -41.2962821824786 0.996096410499458 -41.2962821821214 0.0109839835299518 155.914934656106 
1.68             0.0150847744547321 -66.994029299865 0.995983445036034 -42.3012606768162 0.995983444975389 -42.3012606762973 0.0113469657807858 156.051318327392 
1.72             0.015558591413854 -69.0732603205506 0.995868111625351 -43.3061056242769 0.995868111565507 -43.3061056236229 0.0117118491817764 156.175105125744 
1.76             0.0160353897749964 -71.1434523729413 0.995750380664996 -44.3108017056681 0.995750380606526 -44.3108017049141 0.0120783765611313 156.286666006008 
1.8              0.016514578220399 -73.2045648047017 0.995630271561724 -45.3153315346951 0.995630271505037 -45.3153315338821 0.0124462966245479 156.386288697674 
1.84             0.0169955411342958 -75.2565457738666 0.995507862151461 -46.3196762304467 0.995507862096782 -46.319676229619 0.0128153638547487 156.474185211867 
1.88             0.0174776392356922 -77.2993246076102 0.995383295682018 -47.3238161292193 0.995383295629375 -47.3238161284213 0.0131853383841753 156.550498506729 
1.92             0.0179602105606946 -79.3328051174256 0.995256784740257 -48.327731597125 0.99525678468949 -48.3277315963985 0.0135559858467722 156.615308422734 
1.96             0.0184425718167117 -81.3568598056277 0.995128611670539 -49.3314038929113 0.99512861162132 -49.3314038922921 0.0139270772142788 156.668636983005 
2                0.0189240201261227 -83.3713249122602 0.994999125324564 -50.3348160234101 0.994999125276431 -50.3348160229262 0.0142983886219903 156.710453140099 
2.04             0.0194038351713052 -85.3759962630296 0.994868734305778 -51.337953533316 0.994868734258182 -51.3379535329854 0.0146697011885457 156.740677039425 
2.08             0.0198812817462674 -87.3706258879479 0.994737897179604 -52.3408051768563 0.994737897131954 -52.3408051766866 0.0150408008339466 156.759183860017 
2.12             0.0203556127126228 -89.3549193870871 0.994607110371144 -53.3433634304882 0.994607110322861 -53.3433634304765 0.0154114780996974 156.765807285547 
2.16             0.0208260723493934 -91.3285340243794 0.994476894632589 -54.3456248212897 0.994476894583152 -54.3456248214232 0.0157815279746783 156.760342651819 
2.2              0.0212919000773154 -93.2910775328644 0.994347781017528 -55.347590062859 0.994347780966515 -55.3475900631169 0.0161507497301167 156.742549811457 
2.24             0.0217523345291511 -95.2421076153679 0.994220297251159 -56.3492640069228 0.994220297198269 -56.349264007278 0.0165189467668075 156.712155751789 
2.28             0.0222066179282572 -97.1811321234481 0.994094955252257 -57.3506554324706 0.994094955197333 -57.3506554328921 0.0168859264775363 156.668856997973 
2.32             0.0226540007286122 -99.1076098947788 0.993972240373308 -58.3517767037907 0.993972240316339 -58.3517767042457 0.0172515001274892 156.612321830044 
2.36             0.0230937464609835 -101.020952225176 0.993852602711406 -59.3526433337874 0.993852602652521 -59.3526433342437 0.0176154827552779 156.542192339701 
2.4              0.0235251367222583 -102.92052494646 0.993736450634027 -60.3532734896844 0.993736450573483 -60.353273490112 0.017977693097067 156.458086350219 
2.44             0.0239474762384969 -104.805651075583 0.993624146483027 -61.3536874754412 0.993624146421189 -61.3536874758139 0.0183379535361599 156.359599220801 
2.48             0.0243600979273023 -106.675613994201 0.993516004280809 -62.3539072200247 0.993516004218124 -62.3539072203212 0.0186960900802768 156.246305554886 
2.52             0.0247623678819063 -108.529661111493 0.993412289169444 -63.3539557941991 0.993412289106416 -63.3539557944036 0.0190519323686348 156.117760830426 
2.56             0.0251536901981614 -110.367007956814 0.993313218264453 -64.3538569717141 0.993313218201617 -64.3538569718165 0.0194053137108193 155.973502968825 
2.6              0.0255335115665461 -112.18684264304 0.993218962593056 -65.3536348444309 0.993218962530958 -65.353634844427 0.0197560711593089 155.813053858078 
2.64             0.0259013255543884 -113.988330636504 0.993129649802851 -66.3533134955019 0.993129649742019 -66.3533134953924 0.0201040456173776 155.635920844689 
2.68             0.0262566765087656 -115.770619765521 0.993045367361575 -67.3529167304479 0.99304536730251 -67.3529167302387 0.0204490819839496 155.441598208036 
2.72             0.0265991630178114 -117.532845396846 0.992966166013359 -68.3524678628931 0.992966165956514 -68.3524678625939 0.0207910293368123 155.229568630108 
2.76             0.0269284408772453 -119.274135708196 0.992892063304854 -69.3519895497121 0.992892063250629 -69.3519895493361 0.021129741155405 154.999304672803 
2.8              0.0272442255195302 -120.993616985292 0.99282304704094 -70.3515036692649 0.992823046989673 -70.3515036688276 0.0214650755841806 154.750270274342 
2.84             0.0275462938748016 -122.690418873774 0.99275907857135 -71.3510312360157 0.992759078523312 -71.3510312355346 0.0217968957372925 154.481922275711 
2.88             0.0278344856451816 -124.363679519801 0.992700095844764 -72.3505923449765 0.99270009580016 -72.3505923444698 0.0221250700450738 154.193711987457 
2.92             0.0281087039868492 -126.012550538086 0.992646016195392 -73.350206139891 0.992646016154363 -73.3502061393774 0.0224494726424543 153.885086806519 
2.96             0.0283689156068471 -127.636201752349 0.992596738848851 -74.3498907997521 0.992596738811474 -74.3498907992499 0.0227699837990946 153.555491892158 
3                0.0286151502936348 -129.23382566057 0.99255214715013 -75.3496635390067 0.992552147116425 -75.3496635385335 0.0230864903906088 153.204371909365 
3.04             0.0288474999114549 -130.804641585672 0.992512110527356 -76.3495406175736 0.992512110497289 -76.3495406171456 0.0233988864097834 152.83117284738  
3.08             0.0290661168983487 -132.347899481169 0.99247648621205 -77.3495373575314 0.992476486185541 -77.3495373571633 0.0237070735161987 152.435343920157 
3.12             0.0292712123158546 -133.862883370563 0.992445120740377 -78.349668163997 0.992445120717306 -78.3496681637019 0.0240109616220933 152.016339554681 
3.16             0.0294630535048915 -135.348914408605 0.992417851261414 -79.3499465482883 0.992417851241627 -79.3499465480769 0.024310469511713 151.573621472054 
3.2              0.0296419614069367 -136.805353561671 0.992394506678354 -80.3503851519537 0.992394506661669 -80.3503851518348 0.0246055254907256 151.106660865116 
3.24             0.0298083076123639 -138.231603913221 0.992374908647355 -81.3509957706569 0.992374908633567 -81.350995770637 0.0248960680615915 150.614940675054 
3.28             0.0299625111987313 -139.627112608406 0.99235887245682 -82.351789377224 0.992358872445711 -82.3517893773074 0.0251820466200472 150.097957968084 
3.32             0.0301050354210442 -140.991372459108 0.99234620780767 -83.3527761434232 0.99234620779901 -83.3527761436119 0.0254634221670995 149.55522641161  
3.36             0.0302363843137107 -142.323923237048 0.992336719512723 -84.3539654602391 0.992336719506277 -84.3539654605332 0.0257401680301526 148.986278847542 
3.4              0.0303570992602757 -143.624352687813 0.992330208130894 -85.3553659565584 0.992330208126427 -85.3553659569561 0.0260122705861135 148.390669958463 
3.44             0.0304677555822952 -144.892297302841 0.992326470549649 -86.3569855162871 0.992326470546928 -86.3569855167844 0.0262797299785519 147.767979020207 
3.48             0.0305689591931284 -146.127442889356 0.992325300526979 -87.3588312940013 0.99232530052578 -87.3588312945928 0.0265425608202603 147.117812732066 
3.52             0.0306613433562384 -147.329524980167 0.99232648920226 -88.3609097292826 0.992326489202368 -88.360909729961 0.0268007928718787 146.439808113371 
3.56             0.0307455655810246 -148.498329125981 0.99232982558361 -89.3632265599236 0.992329825584821 -89.3632265606807 0.0270544716866435 145.733635452508 
3.6              0.0308223046824796 -149.633691112622 0.992335097017869 -90.3657868342054 0.992335097019997 -90.3657868350315 0.0273036592108215 144.999001291673 
3.64             0.0308922580242596 -150.735497144247 0.992342089647995 -91.3685949224545 0.992342089650867 -91.368594923339 0.0275484343290171 144.235651427775 
3.68             0.030956138958242 -151.803684031479 0.992350588861533 -92.371654528088 0.992350588864995 -92.3716545290195 0.0277888933433299 143.443373906943 
3.72             0.0310146744674469 -152.838239420316 0.992360379732869 -93.3749686983442 0.992360379736787 -93.3749686993106 0.0280251503753102 142.622001987181 
3.76             0.031068603013424 -153.839202093866 0.992371247461148 -94.3785398348872 0.992371247465406 -94.3785398358761 0.0282573376798472 141.7714170408   
3.8              0.0311186725839307 -154.806662374412 0.992382977805037 -95.3823697044593 0.992382977809539 -95.3823697054582 0.0284856058605433 140.891551365534 
3.84             0.0311656389319987 -155.740762648209 0.992395357514966 -96.3864594497376 0.992395357519635 -96.3864594507337 0.0287101239768079 139.982390870716 
3.88             0.0312102639933297 -156.641698029605 0.992408174762976 -97.390809600536 0.992408174767753 -97.3908096015167 0.0289310795338521 139.043977602652 
3.92             0.0312533144654  -157.509717174918 0.992421219569917 -98.3954200854771 0.992421219574763 -98.3954200864301 0.029148678347996 138.076412071577 
3.96             0.0312955605286731 -158.345123249756 0.992434284229413 -99.4002902442394 0.992434284234306 -99.4002902451529 0.0293631442812096 137.079855341233 
4                0.0313377746879128 -159.148275046402 0.99244716372775 -100.405418840471 0.992447163732683 -100.405418841333 0.0295747188405877 136.054530841505 
4.04             0.0313807307097429 -159.919588240502 0.992459656158629 -101.410804075442 0.992459656163614 -101.410804076243 0.0297836606404896 135.000725864583 
4.08             0.031425202631287 -160.659536768638 0.992471563131549 -102.416443602498 0.992471563136607 -102.416443603228 0.0299902447273234 133.918792706006 
4.12             0.0314719638139195 -161.368654300592 0.992482690172461 -103.422334542354 0.992482690177629 -103.422334543004 0.0301947617693755 132.809149413758 
4.16             0.0315217860158573 -162.047535772305 0.992492847115241 -104.42847349926 0.992492847120565 -104.428473499822 0.0303975171166313 131.672280111321 
4.2              0.0315754384574887 -162.696838937809 0.992501848482425 -105.43485657805 0.992501848487958 -105.434856578518 0.0305988297381287 130.508734864366 
4.24             0.0316336868539638 -163.317285890985 0.992509513853639 -106.441479402087 0.992509513859444 -106.441479402455 0.0307990310469586 129.31912906555  
4.28             0.0316972923906504 -163.909664501008 0.992515668220088 -107.44833713208 0.992515668226232 -107.448337132344 0.0309984636255007 128.104142317651 
4.32             0.0317670106185643 -164.474829699053 0.992520142323479 -108.455424485764 0.992520142330032 -108.455424485921 0.0311974798657625 126.864516801962 
4.36             0.0318435902488234 -165.013704548389 0.992522772977739 -109.462735758399 0.992522772984769 -109.462735758448 0.0313964405416918 125.60105512641  
4.4              0.0319277718275205 -165.527281025817 0.992523403371896 -110.470264844049 0.992523403379472 -110.470264843988 0.0315957133319782 124.314617656018 
4.44             0.0320202862751598 -166.016620439569 0.99252188335255 -111.47800525758 0.992521883360737 -111.478005257412 0.0317956713130619 123.006119337029 
4.48             0.032121853277928 -166.482853407711 0.99251806968434 -112.485950157322 0.9925180696932  -112.485950157048 0.0319966914427717 121.676526034935 
4.52             0.032233179521558 -166.927179321957 0.992511826286925 -113.494092368292 0.99251182629651 -113.494092367915 0.0321991530551654 120.326850415599 
4.56             0.0323549567623425 -167.350865224815 0.992503024446985 -114.502424405921 0.992503024457337 -114.502424405448 0.0324034363867172 118.958147407359 
4.6              0.0324878597339455 -167.755244033378 0.992491543003864 -115.510938500164 0.992491543015015 -115.5109384996  0.0326099211529737 117.571509290119 
4.64             0.032632543892964 -168.141712050893 0.992477268507539 -116.51962661988 0.992477268519511 -116.519626619232 0.0328189851932096 116.168060464784 
4.68             0.0327896430106721 -168.511725717513 0.992460095347666 -117.528480497382 0.992460095360461 -117.528480496659 0.033031003198484 114.748951962635 
4.72             0.0329597666229434 -168.866797564333 0.992439925852549 -118.537491652999 0.992439925866154 -118.53749165221 0.0332463455358969 113.315355759166 
4.76             0.0331434973549362 -169.208491349663 0.99241667035703 -119.546651419515 0.992416670371417 -119.54665141867 0.0334653771788576 111.868458960369 
4.8              0.0333413881416385 -169.53841637327 0.99239024723837 -120.555950966326 0.992390247253489 -120.555950965436 0.0336884567499014 110.40945793126  
4.84             0.0335539593697408 -169.858220982559 0.992360582919329 -121.565381323136 0.992360582935113 -121.565381322212 0.0339159356791405 108.939552436534 
4.88             0.0337816959704392 -170.169585303877 0.992327611837857 -122.574933403005 0.992327611854217 -122.57493340206 0.0341481574779462 107.459939861682 
4.92             0.0340250444966062 -170.474213251675 0.992291276382946 -123.584598024547 0.992291276399768 -123.584598023592 0.0343854571240316 105.971809579632 
4.96             0.0342844102212333 -170.773823887547 0.992251526796401 -124.594365933042 0.992251526813552 -124.59436593209 0.034628160550891 104.476337523216 
5                0.034560154297101 -171.070142219452 0.992208321040575 -125.604227820232 0.992208321057899 -125.604227819297 0.034876584231636 102.974681017705 
5.04             0.0348525910202389 -171.364889548079 0.992161624632357 -126.614174342527 0.992161624649678 -126.614174341619 0.0351310348447686 101.46797392042  
5.08             0.0351619852418801 -171.659773481691 0.992111410444066 -127.624196137322 0.992111410461184 -127.624196136453 0.0353918090074127 99.9573221064345 
5.12             0.035488549975304 -171.956477752438 0.992057658472309 -128.634283837121 0.992057658489003 -128.634283836303 0.0356591930600522 98.4437993308391 
5.16             0.0358324442452086 -172.256651975563 0.992000355576378 -129.644428081106 0.992000355592407 -129.64442808035 0.0359334628859255 96.9284434892344 
5.2              0.0361937712280927 -172.561901498039 0.991939495188318 -130.654619523775 0.991939495203424 -130.65461952309 0.0362148837479119 95.4122532894563 
5.24             0.0365725767325995 -172.873777484777 0.99187507699761 -131.664848840214 0.991875077011514 -131.664848839608 0.0365037101259985 93.8961853391715 
5.28             0.0369688480689021 -173.193767388926 0.991807106614206 -132.675106727557 0.991807106626618 -132.675106727038 0.0368001855392035 92.3811516462522 
5.32             0.0373825133560347 -173.523285948113 0.991735595214858 -133.685383902116 0.991735595225477 -133.685383901689 0.0371045423370952 90.8680175219215 
5.36             0.0378134413155783 -173.863666841317 0.991660559178999 -134.695671091622 0.991660559187515 -134.695671091289 0.0374170014477117 89.3575998707171 
5.4              0.0382614415992851 -174.216155132093 0.991582019722077 -135.70595902197 0.991582019728172 -135.705959021735 0.037737772070686 87.8506658464816 
5.44             0.0387262656969731 -174.581900613658 0.991500002536362 -136.71623839782 0.991500002539721 -136.71623839768 0.0380670513066069 86.3479318498811 
5.48             0.0392076084692108 -174.961952160958 0.991414537451728 -137.726499876309 0.991414537452041 -137.726499876263 0.0384050237160325 84.8500628404349 
5.52             0.039705110346705 -175.35725318493 0.991325658132073 -138.736734033153 0.991325658129038 -138.736734033196 0.0387518608040105 83.3576719346177 
5.56             0.0402183602345523 -175.768638275735 0.991233401826822 -139.746931320299 0.991233401820152 -139.746931320423 0.039107720428385 81.8713202612516 
5.6              0.040746899154126 -176.196831115555 0.991137809201635 -140.75708201432 0.99113780919107 -140.757082014513 0.0394727461324967 80.3915170459746 
5.64             0.0412902246476384 -176.642443738387 0.991038924278195 -141.767176154719 0.991038924263503 -141.767176154969 0.039847066405061 78.9187198979642 
5.68             0.0418477959593897 -177.105977214711 0.99093679451971 -142.777203471362 0.990936794500698 -142.777203471652 0.040230793871979 77.453335274128  
5.72             0.042419039992071 -177.587823843438 0.990831471107198 -143.787153300333 0.990831471083719 -143.787153300646 0.0406240244265724 75.9957190985015 
5.76             0.0430033580144738 -178.088270942159 0.990723009461316 -144.797014487734 0.990723009433281 -144.797014488047 0.0410268363062085 74.5461775174509 
5.8              0.0436001330662221 -178.607506339165 0.990611470076266 -145.806775281194 0.990611470043651 -145.806775281486 0.0414392891244846 73.1049677743089 
5.84             0.0442087379626159 -179.145625685904 0.990496919745581 -146.816423209399 0.990496919708444 -146.816423209644 0.0418614228690849 71.6722991901336 
5.88             0.0448285437444314 -179.702641724327 0.990379433274993 -147.82594495058 0.990379433233473 -147.825944950752 0.0422932568761135 70.2483342402441 
5.92             0.0454589283386759 179.721504343591 0.990259095794255 -148.835326191971 0.990259095748589 -148.835326192042 0.0427347887921681 68.8331897189429 
5.96             0.0460992850910697 179.126929233006 0.99013600579759 -149.844551483627 0.990136005748124 -149.84455148357 0.0431859935356884 67.4269379873002 
6                0.0467490306930427 178.513791563133 0.990010279059908 -150.853604091951 0.990010279007099 -150.853604091741 0.0436468222692157 66.0296083009797 
6.04             0.0474076118491737 177.882273362856 0.989882053591102 -151.862465860893 0.989882053535527 -151.862465860506 0.0441172013941831 64.6411882167925 
6.08             0.0480745098110759 177.232559100496 0.989751495800618 -152.871117092181 0.989751495742979 -152.871117091595 0.0445970315797516 63.2616250779403 
6.12             0.0487492416415813 176.564812416223 0.989618808043916 -153.879536460359 0.989618807985036 -153.879536459561 0.0450861868370578 61.890827578769  
6.16             0.0494313567795986 175.879151017512 0.989484237704762 -154.88770098385 0.989484237645578 -154.88770098283 0.0455845136500782 60.5286674102833 
6.2              0.0501204271798563 175.175620625914 0.98934808792268 -155.895586079809 0.989348087864232 -155.895586078569 0.046091830174173 59.1749809877223 
6.24             0.0508160290597458 174.45416947284  0.989210729990697 -156.903165738082 0.989210729934101 -156.903165736632 0.0466079255132765 57.8295712611881 
6.28             0.0515177141951482 173.714625654453 0.989072617309066 -157.910412857623 0.989072617255484 -157.910412855989 0.0471325590866676 56.4922096096994 
6.32             0.0522249689178347 172.956680655248 0.988934300568069 -158.917299796508 0.988934300518659 -158.917299794728 0.0476654600962977 55.1626378181591 
6.36             0.0529371596826242 172.179883450011 0.988796443529341 -159.923799192566 0.988796443485203 -159.923799190694 0.0482063271057757 53.8405701356319 
6.4              0.0536534655326368 171.383650593525 0.988659838367882 -160.929885113482 0.988659838329977 -160.929885111592 0.0487548277423068 52.525695412069  
6.44             0.0543728002128947 170.567298251457 0.988525419025071 -161.935534589516 0.988525418994146 -161.935534587694 0.0493105985331443 51.2176793092446 
6.48             0.0550937301452371 169.730101694692 0.988394270430903 -162.940729564643 0.988394270407387 -162.940729562991 0.0498732448884162 49.9161665802274 
6.52             0.0558143987460609 168.871385752829 0.988267630843201 -163.945459268197 0.988267630827116 -163.945459266829 0.0504423412425109 48.6207834102378 
6.56             0.0565324718954709 167.990645567954 0.988146884039224 -164.949722954716 0.988146884030101 -164.949722953749 0.0510174313665047 47.3311398102848 
6.6              0.0572451223766251 167.087690594027 0.988033537859374 -165.953532882876 0.988033537856185 -165.953532882426 0.0515980288643616 46.0468320535453 
6.64             0.0579490709317999 166.162796867713 0.987929185877454 -166.956917308119 0.987929185878588 -166.956917308289 0.0521836178657707 44.767445143102  
6.68             0.0586406964286881 165.216844965343 0.987835450009104 -167.959923158718 0.987835450012397 -167.959923159587 0.0527736539284761 43.4925552983892 
6.72             0.0593162167415598 164.251416548602 0.987753903862203 -168.962617972414 0.987753903865034 -168.962617974028 0.0533675651627372 42.2217324465408 
6.76             0.0599719266605151 163.268823890304 0.987685979599241 -169.9650906207  0.987685979598698 -169.965090623061 0.0539647535900801 40.9545427038181 
6.8              0.0606044632845104 162.272055843753 0.987632864742575 -170.967450374678 0.987632864735691 -170.967450377735 0.0545645967477241 39.6905508314127 
6.84             0.0612110583690671 161.26463928205  0.987595399055914 -171.969823998326 0.987595399039944 -171.969824001978 0.0551664495489272 38.4293226492033 
6.88             0.0617897357910774 160.250433008198 0.987573984402163 -172.972350798594 0.987573984374873 -172.972350802693 0.0557696464079601 37.1704273905021 
6.92             0.0623394222820459 159.233385786247 0.987568521238245 -173.975175889675 0.987568521198176 -173.975175894034 0.0563735036364488 35.9134399804708 
6.96             0.0628599580696629 158.217296586836 0.98757838338351 -174.978442276168 0.987578383330163 -174.97844228058 0.0569773221153922 34.6579432207318 
7                0.0633520149202463 157.205611632955 0.987602437811713 -175.982282637382 0.987602437745624 -175.982282641635 0.0575803902442585 33.4035298627625 
7.04             0.063816945681404 156.201281415065 0.987639109306098 -176.986811817147 0.987639109228791 -176.986811821049 0.058181987165178 32.149804552956  
7.08             0.0642565975891095 155.206686055611 0.987686482491012 -177.99212094258 0.987686482404841 -177.99212094597 0.0587813862564103 30.8963856327661 
7.12             0.0646731208276135 154.223624000706 0.98774242787568 -178.998273823415 0.987742427783577 -178.998273826181 0.0593778588849925 29.6429067781474 
7.16             0.0650687966229754 153.253350118758 0.987804735564711 179.994694108225 0.987804735469894 179.994694106144 0.0599706784038326 28.3890184635635 
7.2              0.0654458992310983 152.296645726941 0.987871240731229 178.986774466369 0.987871240636908 178.986774464983 0.0605591243735605 27.1343892371648 
7.24             0.0658065967869288 151.353903888757 0.987939928306966 177.977982664599 0.98793992821609 177.97798266387  0.0611424869842903 25.8787067953486 
7.28             0.0661528889998174 150.425216760852 0.98800900938969 176.968353417445 0.988009009304747 176.968353417298 0.0617200716471781 24.6216788467932 
7.32             0.0664865756255936 149.510456099716 0.988076967171519 175.957935686842 0.988076967094432 175.957935687178 0.062291203720413 23.3630337582077 
7.36             0.0668092481146721 148.609342069048 0.98814257459957 174.946787681839 0.988142574531638 174.946787682544 0.0628552333291888 22.1025209764268 
7.4              0.0671222970366625 147.721498614342 0.988204888872839 173.934972358976 0.988204888814762 173.934972359931 0.0634115402344213 20.8399112241022 
7.44             0.0674269290230286 146.846495754177 0.98826322917309 172.922553689823 0.988263229125024 172.922553690915 0.0639595387006455 19.5749964690447 
7.48             0.0677241884452958 145.983880307848 0.98831714401309 171.909593799601 0.98831714397474 171.90959380073  0.0644986823098122 18.3075896702285 
7.52             0.0680149804802731 145.133197072286 0.988366373717803 170.896150957667 0.988366373688519 170.896150958746 0.0650284686647344 17.0375243065214 
7.56             0.0683000934194427 144.294002516177 0.988410812280963 169.882278322114 0.988410812259846 169.882278323075 0.0655484439238547 15.7646536972974 
7.6              0.0685802189996862 143.465872869559 0.988450471505901 168.868023301954 0.988450471491889 168.868023302748 0.0660582071079136 14.4888501271604 
7.64             0.0688559701819454 142.648408189069 0.988485449159437 167.853427391191 0.988485449151396 167.853427391785 0.0665574141190959 13.2100037899829 
7.68             0.0691278962304358 141.841233657602 0.988515901939523 166.838526339182 0.98851590193631 166.838526339561 0.0670457814143559 11.9280215702812 
7.72             0.0693964952023184 141.043999078976 0.988542023397585 165.823350541783 0.988542023398098 165.823350541945 0.0675230892769048 10.6428256825265 
7.76             0.069662224096109 140.256377274228 0.988564026534902 164.807925561366 0.988564026538121 164.80792556132  0.067989184633261 9.35435219126851 
7.8              0.0699255069666744 139.478061881611 0.988582130558474 163.792272706793 0.988582130563489 163.792272706559 0.0684439833677541 8.06254943685651 
7.84             0.0701867413252857 138.70876490456  0.988596551182759 162.776409624461 0.988596551188779 162.776409624066 0.0688874720918538 6.76737639302607 
7.88             0.0704463031257768 137.948214233978 0.988607493853233 161.760350867879 0.988607493859601 161.760350867354 0.0693197093320142 5.46880098363351 
7.92             0.0707045506062862 137.196151285787 0.988615149309941 160.744108425796 0.988615149316127 160.744108425175 0.0697408261067398 4.16679838632983 
7.96             0.0709618272190943 136.452328834415 0.988619690978011 159.727692198079 0.988619690983614 159.727692197399 0.0701510258710893 2.86134935095031 
8                0.0712184638439147 135.716509081651 0.988621273750526 158.711110414989 0.988621273755257 158.711110414285 0.0705505838146364 1.55243855985442 
8.04             0.0714747804454701 134.988461972935 0.988620033806434 157.694369999739 0.988620033810121 157.694369999044 0.0709398455067939 0.240053056391224 
8.08             0.0717310873056211 134.267963755805 0.988616089176936 156.677476876895 0.988616089179496 156.677476876241 0.0713192248911497 -1.0758192338812 
8.12             0.0719876859341167 133.554795764893 0.988609540834871 155.660436230674 0.988609540836302 155.660436230088 0.0716892016378741 -2.39519086658787 
8.16             0.0722448697401096 132.84874341228  0.988600474133059 154.643252717902 0.98860047413343 154.64325271741  0.072050317870127 -3.71807610628029 
8.2              0.0725029245285411 132.149595359698 0.988588960459232 153.625930640586 0.988588960458667 153.625930640206 0.0724031742865765 -5.0444920009748 
8.24             0.0727621288708774 131.457142848776 0.98857505900845 152.608474082891 0.98857505900711 152.608474082638 0.0727484257074897 -6.37445928885496 
8.28             0.0730227543879533 130.771179166513 0.988558818600011 151.590887017029 0.988558818598091 151.590887016913 0.0730867760762901 -7.70800312559524 