! Touchstone file from project TestMultiLine
! Exported from HFSS 14.0.0
! Variables:
!  gap = 0mm
!  hair = 35mm
!  hsub = 0.762mm
!  l = 28mm
!  lair = 40mm
!  lmic = 14mm
!  w = 25mm
!  wair = 40mm
!  wmic = 2.1mm
!Data is not renormalized
# GHZ S MA
! Modal data exported
! Port[1] = 1:1
! Port[2] = 2:1
1                0.0104099730040981 -47.3931346348679 0.997707313288197 -25.4509011152457 0.997707313288166 -25.4509011152457 0.00811382978576672 174.177902307259 
1.04             0.0110444532841396 -49.4566224112258 0.99755440509498 -26.4704944077893 0.997554405100152 -26.4704944081211 0.00859680531399203 173.789714499196 
1.08             0.0116876430945658 -51.4690992954142 0.997401474424127 -27.4898478812149 0.997401474434818 -27.4898478818351 0.00909385899839724 173.397774078067 
1.12             0.0123389195948069 -53.4336061138964 0.997248640450288 -28.5089463981595 0.997248640466695 -28.5089463990259 0.00960444872685141 173.002032763272 
1.16             0.0129977166821414 -55.3530421366502 0.997096015316745 -29.5277762493652 0.997096015338962 -29.5277762504377 0.0101280164989823 172.602409693659 
1.2              0.0136635186038506 -57.2301722607177 0.996943706756542 -30.5463251814254 0.996943706784569 -30.5463251826663 0.010663989209399 172.198798571888 
1.24             0.0143358534855044 -59.0676337629161 0.99679182018355 -31.5645823985038 0.996791820217312 -31.564582399878 0.011211779486177 171.791073278566 
1.28             0.015014286859681 -60.8679425005106 0.996640460318319 -32.5825385458114 0.996640460357671 -32.5825385472866 0.0117707865836908 171.379092250142 
1.32             0.0156984152585045 -62.6334985162181 0.996489732411185 -33.6001856806531 0.996489732455928 -33.6001856822   0.0123403973284621 170.962701860892 
1.36             0.0163878599166605 -64.3665910447221 0.996339743120984 -34.6175172353397 0.996339743170871 -34.6175172369319 0.0129199871162557 170.541739004132 
1.4              0.0170822606186109 -66.069402937512 0.996190601102518 -35.6345279750915 0.996190601157265 -35.6345279767053 0.0135089209582114 170.116033030469 
1.44             0.017781269714176 -67.7440145307026 0.996042417350335 -36.6512139531722 0.996042417409627 -36.6512139547868 0.0141065545733716 169.685407170283 
1.48             0.0184845463200661 -69.3924069821415 0.995895305340767 -37.6675724648201 0.995895305404267 -37.6675724664175 0.0147122355245438 169.249679542869 
1.52             0.0191917507209434 -71.0164651028815 0.99574938100874 -38.6836020010404 0.995749381076095 -38.683602002605 0.0153253043940489 168.808663834668 
1.56             0.0199025389818234 -72.617979705856 0.995604762590871 -39.6993022029434 0.995604762661715 -39.699302204462 0.0159450959955443 168.362169712991 
1.6              0.0206165577837409 -74.1986494924299 0.995461570361783 -40.7146738170445 0.995461570435743 -40.714673818506 0.0165709406177963 167.910003028809 
1.64             0.0213334394963359 -75.7600824959321 0.995319926286534 -41.7297186517457 0.995319926363236 -41.7297186531413 0.0172021652959965 167.451965851932 
1.68             0.0220527975040615 -77.3037971006113 0.995179953608451 -42.7444395350745 0.99517995368752 -42.744439536397 0.0178380951060009 166.987856373761 
1.72             0.0227742218068419 -78.8312226547752 0.995041776388569 -43.7588402736626 0.995041776469635 -43.7588402749068 0.0184780544766926 166.517468706278 
1.76             0.0234972749209647 -80.3436996982061 0.994905519010198 -44.7729256128868 0.994905519092895 -44.7729256140487 0.0191213685155634 166.040592600773 
1.8              0.0242214881115262 -81.8424798262696 0.994771305659851 -45.7867011980513 0.994771305743822 -45.7867011991286 0.0197673643425534 165.557013105701 
1.84             0.0249463579936274 -83.3287252163763 0.994639259793823 -46.800173536475 0.994639259878723 -46.8001735374664 0.020415372427196 165.066510179748 
1.88             0.025671343545458 -84.8035078465672 0.994509503598103 -47.8133499603303 0.994509503683596 -47.8133499612358 0.0210647279241835 164.568858273617 
1.92             0.0263958635821404 -86.2678084408699 0.994382157447863 -48.8262385900904 0.994382157533628 -48.8262385909109 0.0217147720025985 164.063825891923 
1.96             0.0271192947444092 -87.7225151816264 0.994257339371707 -49.8388482984372 0.994257339457435 -49.8388482991743 0.022364853164238 163.551175144939 
2                0.0278409700605554 -89.168422235087 0.994135164524828 -50.8511886745017 0.994135164610226 -50.8511886751578 0.0230143285467015 163.030661298603 
2.04             0.0285601781431988 -90.6062281430613 0.994015744674487 -51.863269988313 0.994015744759277 -51.8632699888912 0.0236625652072041 162.502032330143 
2.08             0.0292761630840021 -92.0365341401279 0.993899187700541 -52.87510315535  0.99389918778446 -52.8751031558538 0.0243089413834136 161.965028495799 
2.12             0.0299881251090152 -93.4598424626178 0.993785597113223 -53.8866997011038 0.993785597196025 -53.8866997015369 0.0249528477279894 161.419381916481 
2.16             0.0306952220545789 -94.8765547220486 0.993675071589946 -54.8980717255682 0.993675071671401 -54.8980717259351 0.0255936885139157 160.864816186631 
2.2              0.0313965717182576 -96.2869704216172 0.993567704532519 -55.9092318675986 0.993567704612414 -55.9092318679037 0.0262308828081599 160.301046011144 
2.24             0.0320912551308462 -97.6912856994247 0.993463583645896 -56.9201932690789 0.993463583724035 -56.9201932693267 0.0268638656116529 159.727776874855 
2.28             0.0327783207838614 -99.0895923859875 0.993362790539335 -57.9309695388631 0.993362790615537 -57.9309695390583 0.027492088964059 159.144704748858 
2.32             0.0334567898320128 -100.481877465898 0.993265400350642 -58.9415747164575 0.993265400424745 -58.9415747166049 0.0281150230122848 158.551515837704 
2.36             0.0341256622719655 -101.868023033915 0.993171481394041 -59.9520232354273 0.993171481465899 -59.9520232355317 0.0287321570421519 157.947886371398 
2.4              0.0347839240774762 -103.247806833926 0.993081094832081 -60.9623298865178 0.993081094901562 -60.9623298865838 0.0293430004731231 157.333482446028 
2.44             0.035430555247098 -104.620903464869 0.992994294371885 -61.9725097804886 0.992994294438876 -61.9725097805209 0.0299470838164164 156.707959916789 
2.48             0.0360645386947091 -105.986886330561 0.992911125985995 -62.9825783106713 0.992911126050396 -62.9825783106742 0.0305439595972578 156.070964347181 
2.52             0.0366848698859293 -107.345230400438 0.992831627657974 -63.9925511152634 0.992831627719704 -63.9925511152412 0.0311332032424066 155.422131018149 
2.56             0.0372905670960497 -108.695315835251 0.992755829152916 -65.0024440393806 0.992755829211907 -65.0024440393374 0.0317144139344225 154.761085001027 
2.6              0.0378806821385641 -110.036432516157 0.992683751812949 -66.0122730968969 0.992683751869148 -66.0122730968365 0.0322872154344324 154.087441298191 
2.64             0.0384543113890369 -111.36778549745 0.992615408377801 -67.0220544321033 0.992615408431169 -67.0220544320292 0.0328512568753847 153.400805055468 
2.68             0.0390106069081719 -112.688501382926 0.992550802830481 -68.0318042812244 0.992550802880995 -68.03180428114  0.0334062135279414 152.700771850465 
2.72             0.0395487874518622 -113.997635604127 0.992489930268113 -69.0415389338389 0.992489930315761 -69.0415389337474 0.0339517875412578 151.986928061125 
2.76             0.0400681491458464 -115.294180556115 0.992432776797918 -70.0512746942439 0.992432776842703 -70.0512746941479 0.0344877086609143 151.258851319014 
2.8              0.0405680755993359 -116.57707452388 0.992379319458377 -71.0610278428212 0.992379319500314 -71.0610278427234 0.0350137349262067 150.516111051984 
2.84             0.0410480472362614 -117.845211310734 0.992329526165554 -72.0708145974557 0.992329526204671 -72.0708145973582 0.0355296533488529 149.758269121071 
2.88             0.0415076496349078 -119.097450460115 0.99228335568458 -73.0806510750638 0.992283355720915 -73.0806510749687 0.0360352805749384 148.984880556654 
2.92             0.0419465806865462 -120.332627944857 0.992240757626259 -74.0905532532932 0.992240757659863 -74.0905532532021 0.0365304635315944 148.19549439908  
2.96             0.0423646564106834 -121.549567184001 0.992201672468792 -75.1005369324551 0.992201672499724 -75.1005369323695 0.03701508005948 147.389654649097 
3                0.0427618152977636 -122.747090237249 0.992166031604542 -76.1106176977566 0.992166031632873 -76.1106176976776 0.0374890395316181 146.566901333584 
3.04             0.0431381210882575 -123.924029021653 0.992133757411825 -77.1208108818965 0.992133757437635 -77.1208108818251 0.0379522834585212 145.726771692128 
3.08             0.0434937639384198 -125.079236394249 0.992104763351621 -78.1311315280995 0.992104763374998 -78.1311315280364 0.0384047860788247 144.86880149002  
3.12             0.0438290599658092 -126.211596948259 0.992078954089158 -79.1415943536538 0.992078954110198 -79.1415943535995 0.0388465549338392 143.992526463179 
3.16             0.0441444492100458 -127.32003737874 0.992056225640228 -80.1522137140293 0.992056225659036 -80.152213713984 0.0392776314235297 143.097483900388 
3.2              0.04444049208442 -128.403536285979 0.992036465542152 -81.1630035676472 0.992036465558839 -81.1630035676109 0.0396980913404391 142.183214367917 
3.24             0.0447178644302145 -129.461133300641 0.992019553049213 -82.1739774413788 0.992019553063894 -82.1739774413514 0.0401080453770015 141.24926358123  
3.28             0.0449773513165538 -130.491937433156 0.992005359352406 -83.1851483968476 0.992005359365204 -83.185148396829 0.0405076396005472 140.295184427896 
3.32             0.0452198397532311 -131.495134570035 0.991993747823298 -84.1965289976133 0.99199374783434 -84.1965289976028 0.0408970558890914 139.320539145039 
3.36             0.0454463105016047 -132.469994060959 0.99198457428176 -85.2081312773137 0.991984574291177 -85.2081312773111 0.0412765123197483 138.324901653683 
3.4              0.0456578291790641 -133.415874361713 0.991977687287312 -86.2199667088455 0.991977687295239 -86.21996670885  0.0416462635003223 137.307860051126 
3.44             0.0458555368558545 -134.332227718478 0.991972928453761 -87.2320461746598 0.991972928460334 -87.2320461746707 0.0420066008333345 136.269019260926 
3.48             0.0460406403396994 -135.218603898008 0.991970132786801 -88.2443799382526 0.991970132792159 -88.244379938269 0.0423578527004609 135.208003838276 
3.52             0.0462144023344132 -136.074652985226 0.991969129044171 -89.2569776169288 0.991969129048454 -89.25697761695  0.0427003845541189 134.124460926372 
3.56             0.0463781316445121 -136.900127284322 0.991969740117937 -90.2698481559185 0.991969740121286 -90.2698481559436 0.043034598901773 133.018063356877 
3.6              0.0465331735797833 -137.69488237131 0.991971783438414 -91.2829998039225 0.991971783440967 -91.2829998039507 0.0433609351674809 131.888512884661 
3.64             0.0466809006929976 -138.458877355077 0.991975071399171 -92.2964400901659 0.99197507140107 -92.2964400901963 0.0436798694142981 130.735543543776 
3.68             0.0468227039615439 -139.192174410255 0.991979411802549 -93.3101758030355 0.991979411803931 -93.3101758030673 0.0439919139104598 129.558925107917 
3.72             0.0469599845007738 -139.894937648896 0.991984608325001 -94.3242129703768 0.991984608326   -94.3242129704091 0.0442976165217972 128.35846663467  
3.76             0.0470941458741497 -140.567431399255 0.991990461001574 -95.3385568415237 0.991990461002322 -95.3385568415558 0.0445975599126896 127.134020068481 
3.8              0.0472265870436818 -141.210017959188 0.991996766728721 -96.3532118711361 0.991996766729348 -96.3532118711672 0.0448923605380348 125.885483872647 
3.84             0.0473586959841773 -141.823154889163 0.992003319784627 -97.3681817049127 0.992003319785256 -97.3681817049423 0.0451826674093098 124.612806655837 
3.88             0.0474918439669582 -142.407391906094 0.99200991236611 -98.3834691672509 0.99200991236686 -98.3834691672785 0.0454691606188242 123.315990753703 
3.92             0.0476273805031922 -142.963367434354 0.992016335141141 -99.3990762509184 0.992016335142125 -99.3990762509435 0.0457525496078  121.995095721179 
3.96             0.0477666289239418 -143.491804864991 0.992022377815909 -100.415004108801 0.992022377817233 -100.415004108823 0.0460335711659718 120.650241686342 
4                0.0479108825634934 -143.993508568433 0.99202782971533 -101.431253047786 0.992027829717094 -101.431253047805 0.04631298715302 119.281612512219 
4.04             0.0480614015043649 -144.469359700324 0.992032480375789 -102.447822524844 0.992032480378085 -102.44782252486 0.0465915819353511 117.889458709003 
4.08             0.048219409836455 -144.920311834704 0.992036120148859 -103.464711145355 0.992036120151772 -103.464711145368 0.0468701595355114 116.474100035958 
4.12             0.0483860933788618 -145.347386453707 0.992038540814648 -104.481916663743 0.992038540818253 -104.481916663753 0.0471495404958534 115.035927730033 
4.16             0.0485625978107132 -145.751668318539 0.992039536203375 -105.499435986446 0.992039536207741 -105.499435986453 0.047430558462918 113.575406297185 
4.2              0.0487500271566491 -146.134300742659 0.992038902823678 -106.517265177286 0.992038902828859 -106.51726517729 0.0477140565042946 112.093074802761 
4.24             0.0489494425731167 -146.496480785002 0.992036440496106 -107.535399465261 0.992036440502151 -107.535399465264 0.0480008831753741 110.589547599303 
4.28             0.0491618613831244 -146.83945437863 0.992031952990173 -108.553833254805 0.992031952997121 -108.553833254805 0.0482918883593045 109.065514433921 
4.32             0.0493882563093236 -147.164511408426 0.992025248663286 -109.572560138524 0.992025248671162 -109.572560138523 0.048587918909455 107.521739883112 
4.36             0.0496295548580374 -147.472980750258 0.992016141099771 -110.591572912461 0.992016141108592 -110.59157291246 0.048889814129621 105.959062070619 
4.4              0.0498866388099584 -147.766225283349 0.992004449748205 -111.610863593877 0.992004449757978 -111.610863593876 0.0491984011328789 104.378390633611 
4.44             0.050160343776549 -148.045636887318 0.991990000555167 -112.630423441581 0.991990000565883 -112.630423441582 0.0495144901252326 102.780703914086 
4.48             0.0504514587845773 -148.312631435367 0.991972626593443 -113.650242978804 0.991972626605087 -113.650242978807 0.0498388696647773 101.167045365659 
4.52             0.0507607258546291 -148.568643795291 0.991952168682753 -114.670312018615 0.991952168695299 -114.670312018621 0.0501723019508409 99.5385191806266 
4.56             0.0510888395427893 -148.815122850295 0.991928476000918 -115.690619691883 0.991928476014325 -115.690619691893 0.0505155182002739 97.8962851579414 
4.6              0.0514364464179603 -149.053526551832 0.991901406683389 -116.711154477752 0.99190140669761 -116.711154477766 0.0508692141695697 96.241552849032  
4.64             0.0518041444504551 -149.285317016886 0.991870828409059 -117.731904236628 0.99187082842403 -117.731904236648 0.0512340458816908 94.5755750347872 
4.68             0.0521924822905972 -149.511955682066 0.991836618970142 -118.752856245632 0.991836618985795 -118.752856245658 0.0516106256152593 92.8996406028401 
4.72             0.0526019584190916 -149.734898526678 0.991798666823995 -119.773997236498 0.991798666840249 -119.773997236531 0.0519995182111124 91.2150669090046 
4.76             0.0530330201539433 -149.955591376417 0.991756871624628 -120.795313435859 0.99175687164139 -120.795313435899 0.0524012377471289 89.5231917197351 
4.8              0.0534860625017471 -150.175465298573 0.991711144731711 -121.816790607878 0.991711144748881 -121.816790607925 0.0528162446267964 87.8253648432651 
4.84             0.0539614268443079 -150.395932098615 0.991661409694819 -122.838414099169 0.991661409712289 -122.838414099225 0.0532449431203129 86.122939565197  
4.88             0.0544593994548371 -150.618379926761 0.991607602710685 -123.860168885932 0.991607602728336 -123.860168885996 0.0536876793893108 84.4172640094001 
4.92             0.0549802098414789 -150.844169001722 0.991549673051207 -124.882039623231 0.991549673068913 -124.882039623302 0.0541447400177551 82.7096725469337 
4.96             0.0555240289197019 -151.074627457228 0.991487583459988 -125.904010696333 0.991487583477618 -125.904010696412 0.054616351062479 81.0014773742299 
5                0.0560909670192162 -151.311047315366 0.991421310515165 -126.926066274022 0.991421310532579 -126.926066274108 0.0551026776274481 79.2939603770758 
5.04             0.0566810717355874 -151.554680589202 0.991350844956326 -127.94819036378 0.991350844973382 -127.948190363872 0.0556038239564815 77.5883653891677 
5.08             0.0572943256416601 -151.806735515704 0.991276191973356 -128.970366868731 0.991276191989903 -128.970366868828 0.0561198340300948 75.8858909435804 
5.12             0.057930643879295 -152.0683729188  0.991197371455024 -129.992579646238 0.991197371470909 -129.992579646338 0.0566506926436187 74.1876836027882 
5.16             0.0585898716577783 -152.340702701467 0.991114418195209 -131.01481256802 0.991114418210282 -131.014812568122 0.0571963269360383 72.4948319384643 
5.2              0.0592717816915533 -152.624780465248 0.991027382054727 -132.037049581662 0.991027382068829 -132.037049581763 0.0577566083322773 70.8083612167042 
5.24             0.059976071616619 -152.921604255497 0.990936328076662 -133.05927477338 0.990936328089637 -133.059274773479 0.0583313548560768 69.1292288281863 
5.28             0.0607023614319537 -153.232111431135 0.990841336553297 -134.081472431886 0.990841336564988 -134.081472431979 0.0589203337662848 67.4583204866524 
5.32             0.0614501910195543 -153.557175658659 0.990742503042696 -135.103627113193 0.99074250305295 -135.103627113278 0.0595232644663361 65.7964472034871 
5.36             0.0622190178039727 -153.897604031748 0.990639938333094 -136.125723706207 0.990639938341761 -136.125723706279 0.0601398216349551 64.1443430315883 
5.4              0.0630082146194094 -154.254134319953 0.99053376835331 -137.147747498914 0.990533768360243 -137.147747498971 0.0607696385256215 62.5026635584897 
5.44             0.0638170678592404 -154.627432352641 0.990424134027492 -138.169684244995 0.99042413403255 -138.169684245031 0.061412310383013 60.8719851171449 
5.48             0.0646447759890494 -155.018089547603 0.990311191072534 -139.191520230659 0.990311191075586 -139.191520230671 0.0620673979263673 59.2528046730775 
5.52             0.0654904485094938 -155.426620597327 0.990195109736672 -140.213242341512 0.990195109737591 -140.213242341495 0.0627344308523493 57.6455403388578 
5.56             0.0663531054593098 -155.853461329899 0.990076074477732 -141.234838129232 0.990076074476403 -141.234838129181 0.063412911313425 56.0505324610773 
5.6              0.067231677551076 -156.298966765675 0.989954283579758 -142.256295877848 0.989954283576073 -142.256295877757 0.0641023173317577 54.468045221121  
5.64             0.0681250070326439 -156.763409395005 0.98982994870668 -143.277604669381 0.989829948700549 -143.277604669245 0.0648021061131133 52.8982686889236 
5.68             0.0690318493649947 -157.246977706389 0.989703294391947 -144.298754448612 0.989703294383285 -144.298754448425 0.0655117172300243 51.3413212684096 
5.72             0.0699508758023647 -157.749774998155 0.989574557463033 -145.319736086736 0.989574557451775 -145.319736086492 0.0662305756483762 49.7972524742133 
5.76             0.0708806769524557 -158.271818509937 0.989443986399944 -146.340541443627 0.98944398638604 -146.34054144332 0.0669580945765309 48.2660459813691 
5.8              0.0718197673831857 -158.813038912676 0.989311840626954 -147.361163428458 0.989311840610367 -147.361163428083 0.067693678120958 46.7476228926932 
5.84             0.0727665913275787 -159.373280197322 0.989178389736907 -148.381596058396 0.989178389717619 -148.381596057946 0.0684367237370347 45.2418451723481 
5.88             0.0737195295200302 -159.95230000273 0.989043912647659 -149.401834515059 0.989043912625673 -149.401834514528 0.0691866244681076 43.7485191983645 
5.92             0.0746769071754434 -160.549770422166 0.988908696690345 -150.421875198465 0.988908696665676 -150.421875197847 0.0699427709700441 42.2673993914994 
5.96             0.0756370030979131 -161.1652793253  0.988773036629346 -151.441715778129 0.98877303660203 -151.441715777419 0.0707045533222831 40.7981918825742 
6                0.0765980598782363 -161.798332228378 0.988637233614102 -152.46135524099 0.988637233584196 -152.461355240182 0.0714713626298094 39.3405581852061 
6.04             0.0775582951102247 -162.448354739486 0.988501594063069 -153.480793935829 0.98850159403065 -153.480793934918 0.0722425924235075 37.8941188455008 
6.08             0.0785159135254595 -163.11469559832 0.988366428480446 -154.50003361382 0.98836642844561 -154.5000336128  0.0730176398689981 36.4584570447353 
6.12             0.0794691199157859 -163.796630320955 0.988232050206547 -155.519077464845 0.988232050169405 -155.519077463713 0.0737959067963334 35.0331221352235 
6.16             0.0804161326836543 -164.49336544969 0.988098774103016 -156.537930149194 0.988098774063709 -156.537930147947 0.0745768005648325 33.6176330934055 
6.2              0.0813551978336164 -165.204043396641 0.987966915174517 -157.556597824256 0.987966915133195 -157.55659782289 0.0753597347789111 32.2114818776825 
6.24             0.0822846031951239 -165.927747857446 0.9878367871288  -158.575088165779 0.987836787085637 -158.575088164291 0.0761441298720016 30.8141366816161 
6.28             0.0832026926484658 -166.663509758795 0.98770870087764 -159.593410383298 0.987708700832827 -159.593410381688 0.0769294135766112 29.425045075827  
6.32             0.0841078801132835 -167.410313690884 0.987582962981601 -160.611575229277 0.987582962935343 -160.611575227543 0.0777150212992425 28.0436370342684 
6.36             0.0849986630534963 -168.16710476372 0.987459874042094 -161.629595001525 0.987459873994614 -161.629594999668 0.07850039641933 26.6693278425214 
6.4              0.0858736352542515 -168.932795815056 0.987339727044948 -162.647483538429 0.987339726996483 -162.64748353645 0.079284990531547 25.3015208873885 
6.44             0.0867314986359726 -169.706274887999 0.98722280566032 -163.665256206538 0.987222805611115 -163.665256204439 0.0800682636508277 23.9396103283766 
6.48             0.0875710738876238 -170.486412888438 0.987109382504596 -164.682929880017 0.987109382454912 -164.682929877803 0.0808496843992578 22.5829836526748 
6.52             0.0883913097255087 -171.272071326704 0.986999717370823 -165.700522911515 0.986999717320924 -165.700522909189 0.0816287301936066 21.2310241159894 
6.56             0.0891912906144601 -172.062110044669 0.986894055435111 -166.718055093937 0.986894055385271 -166.718055091506 0.0824048874517393 19.8831130721179 
6.6              0.0899702428240384 -172.855394828766 0.986792625447547 -167.73554761269 0.986792625398039 -167.735547610162 0.0831776518354504 18.5386321944545 
6.64             0.0907275387319604 -173.65080481148 0.986695637917229 -168.753022987908 0.986695637868331 -168.753022985291 0.0839465285464099 17.1969655927549 
6.68             0.0914626993288647 -174.447239568349 0.986603283302337 -169.770505006231 0.986603283254321 -169.770505003534 0.084711032690924 15.8575018284671 
6.72             0.0921753949210359 -175.243625824559 0.986515730217385 -170.78801864171 0.986515730170519 -170.788018638944 0.0854706897280622 14.5196358317905 
6.76             0.0928654440692298 -176.038923694217 0.986433123671273 -171.805589965464 0.986433123625818 -171.805589962642 0.0862250360144205 13.182770723376  
6.8              0.0935328108406995 -176.832132386266 0.986355583351198 -172.823246043734 0.986355583307399 -172.823246040868 0.0869736194573486 11.8463195432488 
6.84             0.0941776004865895 -177.622295323118 0.986283201969014 -173.841014824057 0.986283201927109 -173.841014821162 0.0877160002868817 10.5097068891465 
6.88             0.0948000536869082 -178.408504631118 0.986216043688303 -174.858925009355 0.986216043648505 -174.858925006446 0.0884517519548818 9.17237046603572 
6.92             0.0954005395295029 -179.189904975335 0.986154142651895 -175.877005919784 0.986154142614401 -175.877005916877 0.0891804621680004 7.83376254811695 
6.96             0.0959795474073465 -179.965696724557 0.986097501631385 -176.895287342346 0.986097501596365 -176.895287339457 0.0899017340590386 6.49335135417325 
7                0.0965376780298293 179.264861554803 0.986046090821574 -177.91379936833 0.986046090789173 -177.913799365478 0.0906151874990924 5.15062233667144 
7.04             0.0970756337487404 178.502451265165 0.985999846804449 -178.932572218836 0.985999846774784 -178.932572216036 0.091320460550554 3.80507938460683 
7.08             0.0975942083986358 177.747692583005 0.985958671708553 -179.951636058748 0.98595867168171 -179.95163605602 0.0920172110585822 2.45624593969804 
7.12             0.0980942768449032 177.001143871811 0.985922432590886 179.028979200237 0.985922432566914 179.028979202877 0.0927051183761038 1.10366602521913 
7.16             0.09857678442184 176.263301663804 0.985890961069325 178.009244106777 0.985890961048244 178.009244109312 0.093383885214742 -0.253094813522971 
7.2              0.0990427364283091 175.534601165154 0.985864053234241 176.989129886224 0.985864053216031 176.989129888638 0.0940532396113596 -1.6144486582393 
7.24             0.0994931878309678 174.815417234776 0.985841469868081 175.96860866488  0.985841469852691 175.968608667156 0.0947129369971372 -2.98078445753566 
7.28             0.0999292333055723 174.106065783694 0.985822937001461 174.947653700655 0.985822936988802 174.94765370278  0.0953627623533539 -4.3524673589376 
7.32             0.100351997726324 173.40680554039  0.985808146833291 173.92623961831  0.985808146823238 173.926239620271 0.0960025324353136 -5.72983813432691 
7.36             0.100762627192422 172.717840127303 0.985796759040893 172.904342647161 0.985796759033292 172.904342648947 0.096632098043221 -7.11321269990021 
7.4              0.101162280660608 172.039320394602 0.985788402503616 171.881940858834 0.98578840249828 171.881940860436 0.0972513463163023 -8.50288173151713 
7.44             0.101552122233072 171.371346959273 0.98578267746008 170.859014402306 0.985782677456794 170.859014403717 0.0978602030241313 -9.89911037597214 
7.48             0.101933314132123 170.713972900354 0.985779158114883 169.835545733188 0.985779158113412 169.835545734404 0.098458634827026 -11.302138058308 
7.52             0.102307010376753 170.067206564522 0.985777395705189 168.811519833877 0.985777395705277 168.811519834897 0.0990466514755525 -12.7121783847957 
7.56             0.1026743511619  169.431014440071 0.98577692203106 167.786924420937 0.985776922032437 167.786924421761 0.0996243079176886 -14.1294191406472 
7.6              0.103036457928956 168.805324061478 0.985777253445733 166.761750135817 0.98577725344812 166.76175013645  0.100191706281081 -15.5540223809132 
7.64             0.103394429105786 168.190026910983 0.985777895293178 165.735990714819 0.985777895296296 165.735990715268 0.100748997697125 -16.9861246123655 
7.68             0.103749336486307 167.584981287966 0.985778346770316 164.709643134079 0.985778346773891 164.709643134354 0.10129638393335 -18.4258370634891 
7.72             0.104102222213283 166.990015121066 0.985778106180326 163.682707725273 0.985778106184094 163.682707725387 0.101834118800808 -19.8732460390229 
7.76             0.104454096323347 166.404928702064 0.98577667653157 162.655188257774 0.985776676535289 162.655188257742 0.102362509303874 -21.328413354822 
7.8              0.104805934810164 165.829497324369 0.985773571424242 161.62709198313  0.985773571427689 161.627091982971 0.102881916501061 -22.7913768481726 
7.84             0.105158678159891 165.263473812471 0.985768321153844 160.59842963798  0.985768321156834 160.598429637714 0.10339275604714 -24.2621509581038 
7.88             0.105513230312503 164.706590931987 0.985760478947751 159.569215401885 0.985760478950136 159.569215401534 0.103895498389014 -25.7407273697139 
7.92             0.10587045800294 164.158563672827 0.985749627238403 158.539466807105 0.985749627240072 158.539466806693 0.104390668590336 -27.2270757160938 
7.96             0.106231190437144 163.61909140058  0.985735383864879 157.509204597982 0.98573538386577 157.509204597533 0.104878845762878 -28.7211443310788 
8                0.106596219259896 163.087859873516 0.985717408084067 156.478452538406 0.985717408084168 156.478452537944 0.105360662085911 -30.2228610458262 
8.04             0.1069662987735  162.56454312452  0.985695406263826 155.447237166776 0.985695406263171 155.447237166326 0.105836801398462 -31.7321340220838 
8.08             0.10734214636901 162.04880520894  0.985669137124147 154.415587498945 0.98566913712282 154.41558749853  0.106307997353058 -33.2488526150049 
8.12             0.107724443134382 161.540301820721 0.985638416388676 153.383534680801 0.985638416386806 153.383534680442 0.106775031123474 -34.7728882584611 
8.16             0.10811383460686 161.038681780319 0.98560312070868 152.351111593388 0.985603120706439 152.351111593104 0.107238728662954 -36.3040953660103 
8.2              0.108510931639798 160.543588398774 0.985563190724888 151.318352414803 0.985563190722483 151.31835241461  0.107699957513265 -37.8423122409716 
8.24             0.108916311356987 160.054660723068 0.985518633140016 150.285292144385 0.98551863313768 150.285292144296 0.10815962316877 -39.387361989439 
8.28             0.109330518170353 159.571534668349 0.985469521686314 149.251966096047 0.985469521684294 149.251966096071 0.108618665003347 -40.939053430495 