! Touchstone file from project TestMultiLine
! Exported from HFSS 14.0.0
! Variables:
!  gap = 0mm
!  hair = 35mm
!  hsub = 0.762mm
!  l = 28mm
!  lair = 40mm
!  lmic = 14mm
!  w = 25mm
!  wair = 40mm
!  wmic = 2.1mm
!Data is not renormalized
# GHZ S MA
! Modal data exported
! Port[1] = 1:1
! Port[2] = 2:1
1                0.00990973116595724 -151.259342775433 0.996736112826253 -50.2792305546873 0.996736112826282 -50.2792305546873 0.010825402648118 -116.779155310633 
1.04             0.00991898333090511 -154.318786093542 0.996574604037033 -52.2942365365327 0.996574604029876 -52.2942365360909 0.0110784749345487 -117.83616012269 
1.08             0.00991089840186528 -157.329657753785 0.99641149245733 -54.3086775851252 0.996411492444261 -54.3086775842885 0.0113132882202454 -118.848560588634 
1.12             0.00988565031372206 -160.302787463598 0.996246992197968 -56.3225810633507 0.99624699218008 -56.3225810621611 0.0115296453256918 -119.814720988773 
1.16             0.0098433663260964 -163.248744120131 0.996081336740349 -58.3359718466715 0.996081336718582 -58.3359718451673 0.0117274130169469 -120.732673227272 
1.2              0.00978413178877558 -166.177984788677 0.995914773887231 -60.3488729085235 0.995914773862394 -60.3488729067394 0.0119065269010651 -121.600118737171 
1.24             0.00970799670804171 -169.101009687994 0.995747561588705 -62.3613057898867 0.995747561561496 -62.3613057878547 0.012066997106314 -122.414425218486 
1.28             0.00961498408567885 -172.028528377352 0.995579964437097 -64.3732909769217 0.995579964408118 -64.3732909746712 0.0122089148591418 -123.17261939149 
1.32             0.00950510014871068 -174.971643063863 0.995412250680312 -66.3848482049577 0.995412250650081 -66.3848482025163 0.0123324600817575 -123.871376882561 
1.36             0.00937834674205726 -177.942055994354 0.995244689642894 -68.3959967029567 0.995244689611856 -68.3959967003499 0.0124379101447449 -124.507010407152 
1.4              0.00923473633103986 179.047690686193 0.995077549472714 -70.4067553894545 0.995077549441252 -70.406755386706 0.0125256499172313 -125.075457572428 
1.44             0.00907431027168509 175.983932383923 0.994911095151984 -72.4171430286261 0.994911095120423 -72.4171430257584 0.0125961832609906 -125.572269898034 
1.48             0.00889716127414879 172.851544276308 0.994745586726602 -74.4271783533234 0.994745586695219 -74.4271783503573 0.0126501461118457 -125.992605059986 
1.52             0.00870346133456639 169.633532997871 0.994581277719108 -76.4368801605548 0.994581277688136 -76.4368801575099 0.0126883212780838 -126.331224916238 
1.56             0.00849349687779961 166.310539400667 0.994418413698946 -78.4462673838129 0.994418413668579 -78.4462673807076 0.0127116550560681 -126.582502589651 
1.6              0.00826771348264654 162.860231030604 0.994257230990042 -80.4553591458251 0.994257230960438 -80.4553591426768 0.0127212757107819 -126.740442775757 
1.64             0.00802677340735629 159.256561157314 0.994097955500463 -82.4641747946549 0.994097955471751 -82.4641747914797 0.0127185137845144 -126.798720505682 
1.68             0.00777163025771472 155.468872837014 0.993940801662525 -84.4727339255682 0.993940801634806 -84.4727339223814 0.0127049240688368 -126.750744796808 
1.72             0.00750362659118164 151.460836249788 0.993785971474449 -86.481056390678 0.993785971447799 -86.4810563874936 0.0126823088899844 -126.589754884467 
1.76             0.00722462201533535 147.189234608486 0.993633653636761 -88.4891622980535 0.993633653611234 -88.4891622948848 0.0126527421012124 -126.308957888861 
1.8              0.00693716122295429 142.60267552288  0.993484022778211 -90.4970720017273 0.99348402275384 -90.4970719985866 0.0126185928343306 -125.901717562415 
1.84             0.00664469277111062 137.640431452188 0.993337238767197 -92.5048060838217 0.993337238743999 -92.5048060807205 0.0125825476284416 -125.361803764886 
1.88             0.00635184864210543 132.231854552351 0.993193446105607 -94.5123853298519 0.993193446083585 -94.5123853268006 0.0125476290310557 -124.683710934094 
1.92             0.00606478816902513 126.297235356738 0.993052773402671 -96.5198306981249 0.993052773381813 -96.5198306951331 0.01251720818124 -123.863050302159 
1.96             0.00579159092358244 119.751633783458 0.992915332926934 -98.5271632840431 0.992915332907215 -98.5271632811196 0.0124950082964492 -122.897014113239 
2                0.00554264073022132 112.514019481288 0.99278122023484 -100.534404280032 0.992781220216226 -100.534404277184 0.0124850955007946 -121.784899916456 
2.04             0.00533086572257066 104.524492992528 0.992650513874687 -102.541574931731 0.992650513857134 -102.541574928967 0.0124918532127067 -120.528668916205 
2.08             0.00517159235822878 95.7710186084229 0.99252327516489 -104.548696491038 0.992523275148347 -104.548696488364 0.0125199365600137 -119.133495154377 
2.12             0.00508169421841427 86.3218141961587 0.9923995480456  -106.555790166523 0.99239954803001 -106.555790163945 0.0125742042287957 -117.608244340643 
2.16             0.00507781640201787 76.34984678809   0.992279359002795 -108.562877071712 0.992279358988094 -108.562877069233 0.012659626942775 -115.965806697333 
2.2              0.00517388555540772 66.1283452458061 0.992162717063968 -110.569978171681 0.992162717050091 -110.569978169307 0.0127811744244757 -114.223203056687 
2.24             0.00537874550852363 55.9845394657685 0.992049613864508 -112.577114228388 0.992049613851383 -112.577114226122 0.0129436859676843 -112.401393611589 
2.28             0.00569501354159839 46.2262956838848 0.991940023783829 -114.584305745127 0.991940023771383 -114.584305742971 0.0131517331092536 -110.524747843414 
2.32             0.00611966528135578 37.078871710774  0.991833904150222 -116.591572910485 0.991833904138383 -116.591572908441 0.0134094855401135 -108.620180802996 
2.36             0.0066458568532997 28.6602601526224 0.991731195513317 -118.598935542139 0.99173119550201 -118.59893554021 0.0137205925130222 -106.716016958022 
2.4              0.00726499722227696 20.9942021353359 0.991631821982905 -120.606413030847 0.991631821972056 -120.606413029033 0.0140880910228385 -104.840694526279 
2.44             0.00796834284263448 14.0410852976771 0.991535691632789 -122.614024284923 0.991535691622325 -122.614024283223 0.0145143489267011 -103.021455645645 
2.48             0.00874790938194032 7.72844368730868 0.991442696968152 -124.621787675523 0.991442696958001 -124.621787673938 0.0150010465413523 -101.283170682857 
2.52             0.00959683259501243 1.97285007479181 0.991352715454805 -126.629720983023 0.991352715444897 -126.629720981552 0.0155491951699521 -99.647417497431 
2.56             0.0105093968117505 -3.30732955029746 0.99126561010853 -128.637841344759 0.991265610098798 -128.6378413434  0.0161591866279076 -98.1318872848922 
2.6              0.0114809061101829 -8.18585157706457 0.991181230142553 -130.646165204409 0.991181230132934 -130.646165203161 0.0168308650086391 -96.7501322402651 
2.64             0.0125075040306301 -12.7265232294063 0.991099411671033 -132.654708263266 0.991099411661468 -132.654708262126 0.0175636109710826 -95.5116210646233 
2.68             0.0135859946264214 -16.983222596364 0.991019978466269 -134.663485433634 0.991019978456701 -134.663485432599 0.0183564295277207 -94.4220356528635 
2.72             0.014713686193363 -21.0008490675755 0.990942742767168 -136.672510794602 0.990942742757546 -136.67251079367 0.0192080341156673 -93.4837287702568 
2.76             0.0158882631139191 -24.8165791288236 0.990867506136325 -138.681797550402 0.990867506126601 -138.681797549568 0.0201169220082132 -92.6962652294341 
2.8              0.017107684308338 -28.4611241530138 0.990794060362908 -140.691357991556 0.990794060353041 -140.691357990818 0.0210814383426588 -92.0569822642046 
2.84             0.0183701043724456 -31.9598620439767 0.990722188408347 -142.701203459035 0.9907221883983  -142.701203458388 0.0220998278730636 -91.5615224790871 
2.88             0.0196738131188571 -35.3338030210192 0.990651665391671 -144.711344311589 0.990651665381412 -144.71134431103 0.0231702748714427 -91.2043103323758 
2.92             0.0210171896767648 -38.6003908525082 0.990582259611141 -146.721789896444 0.990582259600645 -146.721789895967 0.0242909324097142 -90.9789578786276 
2.96             0.0223986679697084 -41.7741574629692 0.990513733598677 -148.732548523516 0.990513733587921 -148.732548523117 0.0254599426482546 -90.8785964081708 
3                0.0238167110412903 -44.8672535984451 0.990445845203412 -150.743627443305 0.990445845192382 -150.743627442979 0.0266754498523331 -90.8961377515666 
3.04             0.0252697922528558 -47.8898776658353 0.990378348700532 -152.755032828589 0.990378348689218 -152.755032828331 0.0279356077648906 -91.0244730197551 
3.08             0.0267563818197351 -50.8506222176988 0.990310995921427 -154.766769760056 0.990310995909827 -154.766769759861 0.0292385827704935 -91.2566182598354 
3.12             0.0282749374947906 -53.7567543773373 0.990243537401033 -156.778842215977 0.990243537389145 -156.778842215842 0.0305825540523293 -91.5858167028989 
3.16             0.0298238984682309 -56.614443465992 0.990175723538089 -158.791253066015 0.990175723525919 -158.791253065933 0.031965711710512 -92.0056065893771 
3.2              0.0314016817493987 -59.4289464570016 0.990107305763958 -160.804004069241 0.990107305751518 -160.804004069207 0.0333862535970879 -92.5098624284213 
3.24             0.0330066804452169 -62.2047596956964 0.990038037715503 -162.817095876434 0.990038037702808 -162.817095876444 0.0348423814404449 -93.0928162754842 
3.28             0.0346372634636565 -64.9457435590893 0.98996767640744 -164.830528036705 0.989967676394512 -164.830528036753 0.0363322966814739 -93.7490643718978 
3.32             0.0362917762585192 -67.6552253265911 0.989895983399507 -166.844299008471 0.98989598338637 -166.844299008553 0.0378541963238308 -94.4735633736174 
3.36             0.0379685423010586 -70.3360844275422 0.989822725953711 -168.8584061748  0.989822725940391 -168.858406174912 0.0394062690071534 -95.2616194411307 
3.4              0.0396658650197068 -72.9908233643443 0.989747678176876 -170.872845863121 0.989747678163408 -170.872845863258 0.0409866914406381 -96.1088726742235 
3.44             0.0413820299951295 -75.6216269313237 0.989670622143701 -172.887613369273 0.989670622130118 -172.88761336943 0.042593625280683 -97.0112787418695 
3.48             0.0431153072366461 -78.2304118183597 0.989591348995473 -174.902702985864 0.989591348981816 -174.902702986038 0.044225214496549 -97.9650890591405 
3.52             0.0448639533995562 -80.8188682722653 0.989509660009667 -176.918108034875 0.989509659995976 -176.91810803506 0.0458795832390055 -98.9668304776467 
3.56             0.0466262138323486 -83.3884951623612 0.989425367635623 -178.933820904432 0.989425367621938 -178.933820904627 0.0475548342061535 -100.013285162451 
3.6              0.0484003243689686 -85.9406295397347 0.989338296491576 179.050166910331 0.989338296477945 179.050166910131 0.0492490474860471 -101.101471107845 
3.64             0.0501845128048123 -88.4764715768544 0.989248284318409 177.033864762449 0.989248284304877 177.033864762247 0.0509602798458399 -102.22862358087 
3.68             0.0519770000162262 -90.997105613552 0.989155182885518 175.017282804461 0.989155182872132 175.017282804258 0.0526865644308  -103.392177661992 
3.72             0.0537760007022251 -93.5035179076071 0.989058858844397 173.00043193604  0.989058858831204 173.000431935841 0.0544259108328076 -104.589751966378 
3.76             0.0555797237440019 -95.9966115861013 0.988959194525587 170.983323748107 0.988959194512633 170.983323747914 0.0561763054862448 -105.819133568548 
3.8              0.0573863721926711 -98.4772192117809 0.988856088674876 168.965970463578 0.988856088662207 168.965970463392 0.0579357123490326 -107.078264111463 
3.84             0.0591941429085967 -100.946113312554 0.988749457124764 166.948384874963 0.988749457112427 166.948384874787 0.0597020738276308 -108.365227053301 
3.88             0.0610012258866714 -103.404015168595 0.988639233397428 164.930580279021 0.988639233385466 164.930580278855 0.0614733119068343 -109.678235987742 
3.92             0.0628058033110625 -105.851602107726 0.988525369235634 162.912570408695 0.988525369224089 162.912570408541 0.063247329447982 -111.015623963473 
3.96             0.0646060483903085 -108.289513523742 0.988407835058294 160.894369362582 0.988407835047207 160.894369362441 0.0650220116225863 -112.375833723954 
4                0.0664001240292951 -110.718355802554 0.988286620337612 158.875991532176 0.98828662032702 158.875991532049 0.0667952274522705 -113.75740878752 
4.04             0.068186181398657 -113.138706316244 0.988161733895012 156.857451527169 0.98816173388495 156.857451527056 0.068564831430143 -115.15898528955 
4.08             0.0699623584646406 -115.551116624254 0.988033204113383 154.838764099085 0.988033204103882 154.838764098987 0.0703286652032578 -116.579284511837 
4.12             0.0717267785435156 -117.95611500342 0.987901079063394 152.819944063537 0.987901079054481 152.819944063452 0.0720845593004831 -118.017106028826 
4.16             0.0734775489443563 -120.354208413547 0.987765426542012 150.801006221414 0.987765426533712 150.801006221343 0.0738303348948466 -119.471321405583 
4.2              0.0752127597625294 -122.745883992451 0.987626334021622 148.781965279316 0.987626334013954 148.781965279259 0.0755638055941326 -120.940868387946 
4.24             0.0769304828836232 -125.131610163382 0.98748390850849 146.762835769549 0.987483908501468 146.762835769505 0.0772827792580677 -122.424745530962 
4.28             0.0786287712539408 -127.511837428142 0.987338276309624 144.743631970013 0.987338276303259 144.74363196998  0.0789850598447605 -123.922007217385 
4.32             0.0803056584691486 -129.886998910946 0.987189582707437 142.724367824319 0.987189582701736 142.724367824298 0.0806684492930323 -125.4317590235  
4.36             0.0819591587273129 -132.257510710721 0.98703799154192 140.70505686249  0.987037991536883 140.705056862478 0.0823307494508094 -126.953153394803 
4.4              0.083587267186458 -134.623772113167 0.98688368470036 138.685712122567 0.986883684695983 138.685712122564 0.0839697640627314 -128.485385599066 
4.44             0.0851879607600309 -136.986165708156 0.986726861514997 136.666346073503 0.986726861511273 136.666346073508 0.0855833008324862 -130.027689928998 
4.48             0.0867591993763375 -139.345057453014 0.986567738069276 134.64697053968  0.98656773806619 134.646970539692 0.0871691735770209 -131.57933613105 
4.52             0.0882989277202152 -141.700796717656 0.986406546413705 132.627596627424 0.986406546411239 132.62759662744  0.0887252044906289 -133.1396260409  
4.56             0.0898050774670244 -144.053716343446 0.986243533692624 130.608234653868 0.986243533690755 130.608234653888 0.0902492265369296 -134.707890409811 
4.6              0.0912755700105591 -146.404132743929 0.986078961183472 128.588894078559 0.986078961182172 128.58889407858  0.091739085985878 -136.283485909299 
4.64             0.0927083196778246 -148.752346072161 0.985913103250441 126.569583438139 0.985913103249679 126.569583438161 0.0931926451111633 -137.865792304456 
4.68             0.0941012374148994 -151.098640476218 0.985746246214694 124.550310284523 0.985746246214432 124.550310284545 0.0946077850606632 -139.454209788796 
4.72             0.0954522349194346 -153.443284461559 0.985578687143572 122.531081126919 0.985578687143771 122.53108112694  0.0959824089090359 -141.048156475619 
4.76             0.0967592291868713 -155.786531376164 0.985410732561508 120.511901378101 0.985410732562123 120.511901378119 0.0973144448970984 -142.647066042673 
4.8              0.0980201474293242 -158.128620031844 0.985242697085649 118.492775305317 0.985242697086637 118.492775305332 0.0986018498574296 -144.250385528214 
4.84             0.0992329323184374 -160.469775472694 0.985074901989421 116.473705986248 0.98507490199073 116.473705986259 0.099842612819737 -145.857573277586 
4.88             0.100395547496518 -162.810209899391 0.984907673697578 114.454695270424 0.984907673699156 114.454695270431 0.101034758783069 -147.468097039978 
4.92             0.101505983294059 -165.150123755924 0.984741342216629 112.435743746545 0.984741342218425 112.435743746546 0.10217635263508 -149.081432215217 
4.96             0.102562262586513 -167.489706983326 0.984576239504774 110.416850716136 0.984576239506733 110.416850716132 0.103265503191431 -150.697060250214 
5                0.103562446719019 -169.829140443161 0.984412697785963 108.398014174035 0.98441269778803 108.398014174026 0.10430036732126 -152.314467184053 
5.04             0.104504641424858 -172.168597511793 0.984251047813082 106.379230796191 0.984251047815204 106.379230796176 0.105279154117638 -153.933142339708 
5.08             0.105387002661798 -174.508245844997 0.984091617085844 104.360495935318 0.984091617087965 104.360495935299 0.106200129065338 -155.552577158929 
5.12             0.106207742290297 -176.848249311137 0.983934728029561 102.341803624981 0.983934728031629 102.341803624958 0.107061618152258 -157.17226417508 
5.16             0.10696513351882 -179.188770090082 0.983780696141871 100.323146592711 0.983780696143834 100.323146592684 0.107862011865734 -158.791696116532 
5.2              0.107657516044269 178.47002906579  0.983629828115432 98.304516282846  0.983629828117244 98.3045162828177 0.108599769011002 -160.410365130707 
5.24             0.108283300819816 176.127982412651 0.983482419945911 96.2859028898091 0.983482419947525 96.2859028897797 0.109273420286342 -162.027762116072 
5.28             0.108840974388097 173.784918642698 0.983338755036173 94.2672954026258 0.983338755037549 94.2672954025966 0.109881571548341 -163.643376146201 
5.32             0.109329102724791 171.440658162182 0.983199102309646 92.24868166156   0.983199102310748 92.2486816615326 0.110422906701208 -165.256693966659 
5.36             0.109746334545888 169.095010223567 0.983063714348314 90.2300484278182 0.98306371434911 90.230048427794  0.11089619014648 -166.867199541775 
5.4              0.110091404041392 166.747769914326 0.982932825574081 88.211381467362  0.982932825574546 88.2113814673427 0.111300268733723 -168.474373624506 
5.44             0.110363133008483 164.39871500335  0.982806650496186 86.1926656499565 0.982806650496303 86.1926656499437 0.111634073159112 -170.07769331851 
5.48             0.110560432368267 162.047602643897 0.982685382052424 84.1738850646568 0.982685382052176 84.1738850646521 0.111896618766966 -171.676631597266 
5.52             0.110682303061839 159.694165929319 0.982569190078101 82.155023153004  0.982569190077486 82.1550231530089 0.112087005719428 -173.270656740655 
5.56             0.110727836333332 157.338110294541 0.982458219944383 80.1360628612375 0.982458219943401 80.1360628612535 0.112204418511349 -174.859231644784 
5.6              0.11069621341965 154.979109752246 0.982352591417081 78.1169868128214 0.982352591415738 78.1169868128496 0.112248124820948 -176.441812956022 
5.64             0.110586704678618 152.616802947951 0.982252397798395 76.0977775025018 0.982252397796705 76.0977775025432 0.112217473701708 -178.017849975177 
5.68             0.110398668198957 150.250789012526 0.982157705427942 74.0784175129239 0.982157705425931 74.078417512979  0.112111893137072 -179.586783272392 
5.72             0.110131547946866 147.880623184067 0.982068553635752 72.0588897544855 0.982068553633442 72.0588897545545 0.111930886996466 178.851957052339 
5.76             0.109784871514771 145.505812163317 0.981984955259071 70.0391777285412 0.981984955256494 70.0391777286236 0.111674031448829 177.298953534363 
5.8              0.109358247548041 143.125809157791 0.981906897856871 68.0192658131845 0.981906897854064 68.0192658132794 0.111340970907801 175.754804013423 
5.84             0.108851362935024 140.740008559271 0.981834345780236 65.9991395695504 0.981834345777231 65.9991395696564 0.110931413600827 174.220124892412 
5.88             0.108263979854767 138.347740186996 0.98176724328306 63.9787860647261 0.981767243279894 63.9787860648409 0.110445126872402 172.695555080453 
5.92             0.1075959327852  135.948263014538 0.981705518883745 61.9581942047929 0.98170551888045 61.9581942049137 0.109881932349373 171.181760725077 
5.96             0.106847125582644 133.540758281359 0.981649091212175 59.9373550680582 0.981649091208776 59.9373550681814 0.109241701113468 169.679440850285 
6                0.106017528751333 131.124321870085 0.981597876593242 57.9162622239482 0.981597876589755 57.9162622240695 0.108524349042991 168.189334031412 
6.04             0.105107177029627 128.697955806755 0.981551798621488 55.8949120171563 0.981551798617919 55.8949120172709 0.107729832502005 166.712226254794 
6.08             0.104116167427946 126.260558712985 0.981510799962306 53.8733037893168 0.98151079995864 53.8733037894196 0.106858144571355 165.248960130718 
6.12             0.10304465786282 123.810915004975 0.98147485656032 51.8514400016873 0.981474856556525 51.8514400017728 0.105909312031925 163.800445653015 
6.16             0.101892866542168 121.347682593303 0.981443994328868 49.8293262122982 0.981443994324885 49.829326212361  0.104883393326861 162.367672728863 
6.2              0.10066107226996 118.869378787798 0.981418308215603 47.8069708503559 0.981418308211352 47.806970850391  0.103780477746743 160.951725739207 
6.24             0.0993496158544242 116.374364051273 0.981397983266126 45.7843847205676 0.981397983261497 45.7843847205711 0.102600686100531 159.553800435152 
6.28             0.0979589028242424 113.860823171965 0.98138331691948 43.7615801624783 0.981383316914338 43.7615801624475 0.101344173156469 158.175223530612 
6.32             0.0964894076830158 111.326743333637 0.981374741253244 41.7385697879064 0.981374741247432 41.7385697878407 0.100011132162253 156.81747541871  
6.36             0.0949416799655256 108.769888450241 0.981372843256486 39.715364727274  0.981372843249829 39.7153647271755 0.0986018017841413 155.482216521622 
6.4              0.093316352402257 106.187768993315 0.98137838048249 37.691972338099  0.981378380474812 37.6919723379729 0.097116475842276 154.17131788422  
6.44             0.0916141515542792 103.577606368047 0.981392288703885 35.668393371528  0.981392288695021 35.6683933713828 0.0955555162668722 152.886896744977 
6.48             0.0898359113528005 100.936290679339 0.981415677606994 33.644618659762  0.981415677596803 33.6446186596101 0.093919369760198 151.631357968197 
6.52             0.0879825900716918 98.2603304614215 0.981449810332772 31.6206254795287 0.981449810321164 31.620625479386  0.0922085887267329 150.407442405403 
6.56             0.0860552913838288 95.5457926096514 0.98149606306087 29.5963738591949 0.981496063047829 29.5963738590804 0.0904238571338075 149.218283477565 
6.6              0.0840552903123423 92.78823033412   0.981555862102375 27.5718032155199 0.981555862087974 27.5718032154541 0.0885660220944301 148.067473541113 
6.64             0.0819840650979678 89.9825964307139 0.981630598285118 25.5468298059006 0.981630598269539 25.5468298059044 0.0866361321319077 146.959141927429 
6.68             0.0798433362799763 87.1231385116066 0.981721521742113 23.5213455302112 0.981721521725649 23.5213455303038 0.0846354833039661 145.898046934882 
6.72             0.0776351146526136 84.2032720257861 0.981829624185194 21.4952185781744 0.981829624168243 21.4952185783711 0.0825656746474182 144.889684509231 
6.76             0.0753617602409904 81.2154259020548 0.981955519633813 19.4682962687733 0.981955519616861 19.4682962690832 0.0804286747722212 143.940416870818 
6.8              0.0730260550793164 78.1508544373376 0.982099337371803 17.4404101665165 0.982099337355387 17.4404101669413 0.0782269019101085 143.057624920827 
6.84             0.0706312934223813 74.9994076238752 0.982260641603158 15.4113832185976 0.982260641587826 15.4113832191301 0.0759633203374197 142.249888844478 
6.88             0.0681813941462414 71.7492504923709 0.982438390203195 13.3810383041642 0.98243839018945 13.3810383047891 0.0736415568789067 141.527201841018 
6.92             0.0656810415824113 68.3865203646573 0.982630940138267 11.3492073078771 0.982630940126531 11.349207308571  0.0712660421966988 140.901222181454 
6.96             0.0631358629854057 64.8949094566049 0.982836100409994 9.31573970225898 0.982836100400563 9.31573970299329 0.06884218281045 140.385568515561 
7                0.0605526533693368 61.2551596912495 0.983051226267845 7.28050968769556 0.983051226260866 7.28050968843842 0.0663765712974078 139.996161966546 
7.04             0.0579396616603592 57.444458161555  0.983273342601608 5.24342118214497 0.983273342597076 5.24342118286433 0.0638772438535616 139.751615104371 
7.08             0.0553069560059233 53.4357278941087 0.983499281160029 3.20441031144757 0.983499281157794 3.20441031211385 0.0613539962213596 139.67366075401  
7.12             0.0526668904248698 49.1968239860568 0.983725816042457 1.16344543534169 0.983725816042246 1.16344543592991 0.0588187705507949 139.787600110179 
7.16             0.0500346989717211 44.6896779827474 0.983949784410609 -0.879474932117522 0.98394978441206 -0.879474931625719 0.0562861262881954 140.122725599581 
7.2              0.0474292452058389 39.8694974227985 0.984168183580491 -2.92432574242587 0.98416818358319 -2.92432574204207 0.0537738061573082 140.712633132613 
7.24             0.0448739495695842 34.6842447476498 0.984378240383635 -4.97105993407494 0.984378240387153 -4.97105993380344 0.051303400908239 141.595272514652 
7.28             0.0423978964494047 29.0748204921014 0.984577452909604 -7.01961325803854 0.984577452913527 -7.01961325787692 0.0489010989775789 142.812485033062 
7.32             0.0400370702773882 22.9766893618875 0.98476360783218 -9.06990892670417 0.984763607836135 -9.06990892664431 0.0465984721306746 144.408640147181 
7.36             0.0378355612058899 16.3241078260345 0.984934778284998 -11.1218617555206 0.984934778288674 -11.1218617555498 0.0444331858695251 146.427825629018 
7.4              0.0358463870287816 9.05850350348083 0.985089307824558 -13.1753816142353 0.985089307827714 -13.1753816143375 0.0424494254569725 148.908934253789 
7.44             0.0341312928847072 1.14248930943231 0.985225785714539 -15.2303761276669 0.985225785717008 -15.2303761278239 0.0406976983759246 151.878084417365 
7.48             0.0327585971545117 -7.420400500403  0.985343017941242 -17.2867526549859 0.985343017942933 -17.2867526551788 0.0392335492501222 155.338384338081 
7.52             0.0317981218759164 -16.5638726448279 0.985439997333118 -19.3444196314622 0.985439997334007 -19.3444196316719 0.0381147022017299 159.258383121099 
7.56             0.0313129349098088 -26.1441404977252 0.985515875126514 -21.4032873831896 0.985515875126641 -21.403287383398 0.0373963872519925 163.56257137321  
7.6              0.0313492942888237 -35.9448261083214 0.985569935422994 -23.46326853105  0.985569935422454 -23.46326853124  0.0371252355308966 168.1289954323   
7.64             0.0319281095468967 -45.708368775021 0.985601573275525 -25.5242780926695 0.985601573274451 -25.5242780928264 0.0373330171806847 172.798457138102 
7.68             0.0330416363546503 -55.1853776547247 0.985610276626572 -27.5862333764861 0.985610276625135 -27.5862333765969 0.0380321222264712 177.395503782734 
7.72             0.0346568909866128 -64.1802558357826 0.98559561197822 -29.6490537447383 0.985595611976613 -29.6490537447926 0.0392144047309185 -178.244810910708 
7.76             0.036723880456668 -72.5742847259217 0.985557213468389 -31.7126603050662 0.985557213466816 -31.7126603050558 0.0408537442423834 -174.253924588014 
7.8              0.0391849583747281 -80.3230498699185 0.985494774922601 -33.7769755750463 0.98549477492128 -33.7769755749652 0.0429112050332797 -170.717736234131 
7.84             0.0419823542426564 -87.438139086968 0.985408044415873 -35.8419231510985 0.985408044415016 -35.841923150943 0.045340955244145 -167.676702596879 
7.88             0.0450627939556125 -93.9652547318149 0.985296820889034 -37.9074274028873 0.985296820888849 -37.9074274026558 0.0480953978945534 -165.134221088071 
7.92             0.0483795551645078 -99.966131738435 0.985160952399227 -39.9734132064366 0.985160952399914 -39.9734132061291 0.0511287708265092 -163.068092038401 
7.96             0.0518928253423289 -105.506427696219 0.985000335632386 -42.039805723318 0.985000335634124 -42.0398057229367 0.0543991933759048 -161.441231014086 
8                0.0555691640188544 -110.648843927034 0.984814916357534 -44.106530229092 0.984814916360489 -44.1065302286401 0.0578695125665735 -160.209879277335 
8.04             0.0593806104481212 -115.449879524937 0.984604690553508 -46.1735119912918 0.984604690557819 -46.1735119907744 0.0615073778739202 -159.329077693739 
8.08             0.0633037374689648 -119.958771069858 0.984369705985268 -48.2406761953486 0.984369705991056 -48.2406761947715 0.0652848976490513 -158.755891686628 
8.12             0.0673187908845172 -124.217599902271 0.984110064048038 -50.3079479156661 0.984110064055395 -50.307947915036 0.0691781159009846 -158.451048792943 
8.16             0.0714089626412979 -128.261940977084 0.983825921732666 -52.3752521283918 0.98382592174166 -52.3752521277163 0.073166449663608 -158.379567127798 
8.2              0.0755598013194385 -132.121703018294 0.983517493595234 -54.4425137621116 0.983517493605907 -54.4425137613987 0.0772321588665584 -158.510797475329 
8.24             0.0797587447523127 -135.821980364479 0.983185053638376 -56.5096577826135 0.983185053650741 -56.5096577818719 0.0813598790441297 -158.818157421905 
8.28             0.0839947540600241 -139.383834367378 0.982828937031847 -58.5766093079365 0.982828937045894 -58.5766093071746 0.0855362243927172 -159.278727766037 