! Touchstone file from project TestMultiLine
! Exported from HFSS 14.0.0
! Variables:
!  gap = 8mm
!  hair = 35mm
!  hsub = 0.762mm
!  l = 36mm
!  lair = 50mm
!  lmic = 14mm
!  w = 25mm
!  wair = 40mm
!  wmic = 2.1mm
!  wp = 1mm
!Data is not renormalized
# GHZ S MA
! Modal data exported
! Port[1] = 1:1
! Port[2] = 2:1
1                0.113907724304105 -131.22994605387 0.990413799115247 -24.5806821281692 0.990413799115037 -24.5806821281692 0.114097738643067 -96.7606555010076 
1.04             0.118866118211157 -132.980502776258 0.989688567782299 -25.5743902765879 0.989688567781895 -25.5743902765392 0.119063923493892 -97.0324845577542 
1.08             0.12386832151768 -134.727950321541 0.988929570854199 -26.5692979080995 0.988929570853689 -26.5692979080046 0.124073733786614 -97.3064074242596 
1.12             0.128915309334499 -136.472736085148 0.988136280396727 -27.5654459405319 0.988136280396189 -27.5654459403942 0.129128178960714 -97.5824535666626 
1.16             0.13400798533618 -138.215257623461 0.987308143629766 -28.5628750808753 0.987308143629272 -28.5628750806984 0.13422819865381 -97.8606605394508 
1.2              0.139147179957593 -139.955871235645 0.986444583677345 -29.5616257075098 0.986444583676953 -29.5616257072979 0.139374660802543 -98.1410725708032 
1.24             0.144333648791101 -141.694898820051 0.985545000596968 -30.5617377740036 0.985545000596729 -30.561737773761 0.144568359894086 -98.4237393552261 
1.28             0.149568071190958 -143.432633381999 0.984608772624878 -31.5632507347983 0.984608772624832 -31.5632507345295 0.149810015385525 -98.7087150094958 
1.32             0.154851049093557 -145.169343479078 0.983635257579207 -32.5662034927438 0.983635257579383 -32.5662034924533 0.155100270308332 -98.9960571590155 
1.36             0.160183106063768 -146.905276823436 0.982623794368638 -33.5706343681344 0.982623794369058 -33.5706343678269 0.16043969007519 -99.2858261298297 
1.4              0.165564686578779 -148.640663210993 0.981573704559829 -34.5765810886729 0.981573704560504 -34.576581088353 0.165828761506603 -99.5780842276473 
1.44             0.170996155561738 -150.375716910361 0.980484293962179 -35.5840807996103 0.980484293963112 -35.5840807992823 0.171267892094739 -99.8728950897855 
1.48             0.176477798178063 -152.110638616118 0.979354854193557 -36.5931700931923 0.979354854194744 -36.5931700928607 0.176757409522042 -100.170323099476 
1.52             0.182009819907623 -153.845617049662 0.978184664195164 -37.6038850564575 0.978184664196592 -37.6038850561262 0.182297561451996 -100.470432854631 
1.56             0.187592346906015 -155.580830274293 0.976972991667801 -38.6162613363797 0.976972991669452 -38.6162613360526 0.187888515609196 -100.77328868527 
1.6              0.193225426667987 -157.316446778427 0.975719094405475 -39.6303342213266 0.975719094407326 -39.6303342210072 0.193530360165433 -101.078954215396 
1.64             0.198909029005572 -159.052626370768 0.974422221505499 -40.6461387377949 0.974422221507521 -40.6461387374864 0.199223104447827 -101.387491966415 
1.68             0.204643047352757 -160.789520923414 0.973081614437027 -41.6637097613982 0.973081614439188 -41.6637097611034 0.20496667998412 -101.698963000125 
1.72             0.210427300407518 -162.527274992585 0.971696507952446 -42.683082141084 0.971696507954709 -42.6830821408055 0.210760941899092 -102.013426600091 
1.76             0.216261534120737 -164.266026341664 0.970266130828159 -43.7042908356063 0.970266130830489 -43.7042908353461 0.216605670674555 -102.330939990818 
1.8              0.222145424039972 -166.005906387175 0.968789706423125 -44.7273710612797 0.968789706425483 -44.7273710610396 0.222500574283673 -102.651558094531 
1.84             0.228078578014189 -167.747040585048 0.967266453045119 -45.7523584500958 0.967266453047465 -45.7523584498772 0.228445290708252 -102.975333325747 
1.88             0.234060539263443 -169.489548771798 0.965695584116071 -46.7792892172897 0.965695584118366 -46.7792892170937 0.234439390845341 -103.302315423989 
1.92             0.240090789815106 -171.233545473015 0.964076308129033 -47.8082003374973 0.964076308131237 -47.8082003373246 0.240482381806785 -103.63255132517 
1.96             0.246168754305598 -172.979140189666 0.962407828390365 -48.8391297286538 0.962407828392442 -48.8391297285047 0.246573710612495 -103.966085072216 
2                0.252293804143692 -174.726437671132 0.960689342541713 -49.8721164428215 0.960689342543626 -49.8721164426962 0.252712768274952 -104.302957765496 
2.04             0.258465262028373 -176.475538182514 0.958920041857101 -50.9072008631555 0.958920041858817 -50.9072008630537 0.258898894269074 -104.643207553579 
2.08             0.264682406810947 -178.226537772575 0.957099110311278 -51.9444249062403 0.957099110312766 -51.9444249061615 0.265131381377881 -104.986869664733 
2.12             0.270944478687648 -179.979528547645 0.955225723416089 -52.9838322290508 0.955225723417319 -52.9838322289943 0.27140948090061 -105.333976479434 
2.16             0.277250684705468 178.265401044122 0.953299046822277 -54.0254684398092 0.953299046823227 -54.025468439774 0.277732408205923 -105.684557643978 
2.2              0.283600204560254 176.50816591456  0.951318234684709 -55.0693813120264 0.951318234685355 -55.0693813120115 0.284099348608834 -106.038640225077 
2.24             0.289992196662483 174.748684020555 0.949282427789528 -56.1156210010303 0.949282427789852 -56.1156210010342 0.29050946354586 -106.396248905087 
2.28             0.296425804442458 172.986876030198 0.947190751442291 -57.1642402623   0.947190751442278 -57.1642402623213 0.296961897018812 -106.757406217259 
2.32             0.30290016286306 171.222664968542 0.94504231311661 -58.2152946709316 0.94504231311625 -58.2152946709687 0.303455782273642 -107.122132820152 
2.36             0.309414405104715 169.455975841992 0.942836199863289 -59.2688428415744 0.942836199862573 -59.2688428416256 0.309990248676833 -107.490447810029 
2.4              0.315967669383911 167.686735240934 0.940571475480434 -60.3249466481859 0.940571475479358 -60.3249466482497 0.316564428748122 -107.862369069825 
2.44             0.322559105863452 165.914870920698 0.938247177445421 -61.3836714429576 0.938247177443984 -61.3836714430321 0.323177465304863 -108.237913652945 
2.48             0.329187883609811 164.140311361379 0.935862313610082 -62.4450862737742 0.935862313608289 -62.4450862738575 0.329828518670109 -108.617098199891 
2.52             0.33585319755032 162.362985307486 0.933415858660891 -63.5092640995708 0.933415858658746 -63.5092640996612 0.336516773893693 -108.999939385454 
2.56             0.342554275380739 160.582821288773 0.930906750346339 -64.5762820029563 0.930906750343851 -64.576282003052 0.343241447933047 -109.386454393901 
2.6              0.349290384371842 158.799747123927 0.928333885474166 -65.6462213994744 0.928333885471348 -65.6462213995737 0.350001796738504 -109.776661419412 
2.64             0.356060838022189 157.013689409141 0.925696115681526 -66.7191682428715 0.925696115678392 -66.7191682429727 0.356797122186174 -110.170580188729 
2.68             0.362865002503185 155.224572993845 0.922992242981594 -67.7952132257418 0.92299224297816 -67.7952132258433 0.363626778800387 -110.568232502828 
2.72             0.369702302841858 153.43232044613  0.920221015090618 -68.8744519749114 0.920221015086903 -68.8744519750117 0.370490180207043 -110.969642794215 
2.76             0.376572228786573 151.6368515106   0.917381120539884 -69.9569852409232 0.917381120535909 -69.9569852410208 0.377386805259043 -111.374838696335 
2.8              0.383474340301102 149.838082561562 0.914471183577543 -71.0429190809683 0.914471183573329 -71.0429190810621 0.384316203775319 -111.783851621429 
2.84             0.39040827263303 148.035926054589 0.911489758865836 -72.1323650346035 0.911489758861407 -72.132365034692 0.391278001835765 -112.196717343129 
2.88             0.397373740903495 146.230289979606 0.908435325979798 -73.22544029157  0.908435325975179 -73.2254402916524 0.398271906575606 -112.613476579986 
2.92             0.404370544166542 144.421077318711 0.90530628371419 -74.322267851022 0.905306283709405 -74.3222678510973 0.40529771042441 -113.034175576149 
2.96             0.41139856888807 142.608185511975 0.902100944206094 -75.42297667143  0.902100944201169 -75.4229766714974 0.412355294736906 -113.458866675379 
3                0.41845779179619 140.791505934461 0.898817526881406 -76.5277018104182 0.898817526876366 -76.5277018104771 0.419444632765157 -113.887608884671 
3.04             0.425548282057039 138.970923387709 0.89545415223435 -77.6365845537331 0.89545415222922 -77.6365845537829 0.426565791924161 -114.320468423769 
3.08             0.432670202732301 137.146315608843 0.892008835450114 -78.7497725325255 0.89200883544492 -78.7497725325659 0.433718935305768 -114.757519257012 
3.12             0.43982381147723 135.31755280041  0.888479479881866 -79.8674198280591 0.888479479876631 -79.8674198280899 0.440904322398714 -115.198843604016 
3.16             0.447009460440348 133.484497183963 0.884863870394639 -80.9896870629184 0.884863870389387 -80.9896870629394 0.448122308975567 -115.644532425862 
3.2              0.454227595328589 131.647002580295 0.88115966659009 -82.1167414777139 0.881159666584843 -82.1167414777252 0.455373346110378 -116.094685883613 
3.24             0.461478753604072 129.804914019091 0.877364395927716 -83.2487569922228 0.877364395922496 -83.2487569922246 0.462657978293799 -116.549413766131 
3.28             0.46876356178108 127.958067380664 0.87347544676003 -84.3859142498074 0.873475446754856 -84.3859142498   0.469976840615305 -117.008835884336 
3.32             0.476082731794089 126.106289072287 0.869490061301288 -85.528400643878 0.869490061296179 -85.5284006438617 0.477330654984842 -117.473082429268 
3.36             0.483437056409753 124.249395741502 0.865405328551763 -86.6764103250514 0.865405328546736 -86.6764103250268 0.484720225368761 -117.942294291416 
3.4              0.490827403657695 122.387194028665 0.861218177202236 -87.8301441875521 0.861218177197303 -87.8301441875197 0.49214643201721 -118.416623339017 
3.44             0.49825471025662 120.519480360837 0.85692536854643 -88.9898098332709 0.856925368541607 -88.9898098332313 0.499610224662193 -118.896232653154 
3.48             0.505719974013789 118.646040789044 0.852523489432511 -90.1556215117628 0.852523489427808 -90.1556215117168 0.507112614667338 -119.381296717639 
3.52             0.513224245177177 116.76665087081  0.848008945288531 -91.3278000343044 0.848008945283957 -91.3278000342529 0.514654666111981 -119.8720015618  
3.56             0.520768616720766 114.881075599769 0.843377953260976 -92.5065726599781 0.843377953256538 -92.5065726599218 0.522237485793513 -120.368544854433 
3.6              0.528354213544372 112.989069384127 0.83862653551023 -93.6921729515479 0.838626535505932 -93.6921729514878 0.529862212133062 -120.871135947218 
3.64             0.535982180570299 111.090376075652 0.833750512711938 -94.8848405987137 0.833750512707784 -94.8848405986507 0.53753000297063 -121.379995866049 
3.68             0.543653669719942 109.184729050884 0.828745497818988 -96.084821206097 0.828745497814981 -96.0848212060319 0.545242022236688 -121.895357248693 
3.72             0.551369825754307 107.271851346221 0.823606890145026 -97.2923660430874 0.823606890141162 -97.2923660430212 0.552999425488133 -122.417464227291 
3.76             0.559131770963481 105.351455848556 0.81832986983725 -98.507731752423 0.818329869833529 -98.5077317523567 0.560803344297562 -122.946572254154 
3.8              0.566940588691264 103.423245543206 0.812909392813637 -99.7311800141049 0.812909392810055 -99.7311800140392 0.56865486948597 -123.482947869317 
3.84             0.574797305682844 101.486913820888 0.807340186247664 -100.962977160948 0.807340186244215 -100.962977160884 0.576555033190542 -124.026868408243 
3.88             0.582702873245492 99.5421448456053 0.80161674469223 -102.203393741767 0.80161674468891 -102.203393741705 0.584504789761174 -124.57862164801 
3.92             0.590658147215028 97.5886139853931 0.795733326943552 -103.452704027835 0.795733326940351 -103.452704027776 0.592504995482014 -125.138505390211 
3.96             0.598663866724426 95.6259883079681 0.78968395375551 -104.711185457915 0.789683953752419 -104.711185457859 0.600556387117682 -125.706826978697 
4                0.606720631775527 93.6539271434447 0.783462406525098 -105.979118016749 0.783462406522109 -105.979118016697 0.608659559288237 -126.283902750191 
4.04             0.614828879620654 91.6720827164003 0.777062227080236 -107.256783541478 0.77706222707734 -107.256783541431 0.616814940682519 -126.870057415638 
4.08             0.622988859968134 89.6801008496747 0.770476718712141 -108.544464950019 0.770476718709327 -108.544464949977 0.625022769126397 -127.465623370094 
4.12             0.631200609034597 87.6776217424002 0.763698948605646 -109.842445384919 0.763698948602903 -109.842445384883 0.633283065530987 -128.070939928779 
4.16             0.639463922477548 85.6642808248357 0.756721751832096 -111.151007265691 0.756721751829417 -111.151007265659 0.641595606756215 -128.686352486881 
4.2              0.647778327254505 83.6397096926392 0.749537737080574 -112.470431242031 0.749537737077948 -112.470431242006 0.649959897437401 -129.312211600586 
4.24             0.656143052469895 81.6035371232311 0.742139294314003 -113.800995039719 0.742139294311422 -113.800995039699 0.658375140837132 -129.948871986775 
4.28             0.664556999288433 79.5553901768752 0.73451860454684 -115.142972190228 0.734518604544296 -115.142972190213 0.666840208801626 -130.596691438862 
4.32             0.673018710013743 77.4948953850157 0.726667651950282 -116.496630634339 0.726667651947769 -116.496630634329 0.675353610920374 -131.256029656279 
4.36             0.681526336453875 75.4216800282519 0.7185782384988  -117.862231189106 0.718578238496314 -117.8622311891  0.683913463010202 -131.927246985271 
4.4              0.690077607721203 73.3353735060876 0.710242001377945 -119.240025866477 0.710242001375481 -119.240025866475 0.692517455070042 -132.610703068856 
4.44             0.698669797642903 71.2356088002535 0.701650433377241 -120.630256030674 0.7016504333748  -120.630256030674 0.701162818880868 -133.306755404139 
4.48             0.707299691989965 69.1220240329416 0.692794906493012 -122.033150379968 0.692794906490592 -122.03315037997 0.709846295456269 -134.015757805587 
4.52             0.715963555767292 66.9942641207167 0.683666698963623 -123.448922736749 0.683666698961229 -123.448922736752 0.718564102583052 -134.738058773387 
4.56             0.724657100844721 64.8519825241416 0.674257025953192 -124.877769627677 0.674257025950826 -124.87776962768 0.727311902727776 -135.473999766733 
4.6              0.733375454248443 62.6948430922851 0.664557074088501 -126.319867633073 0.664557074086172 -126.319867633075 0.736084771624076 -136.223913382689 
4.64             0.742113127473934 60.5225220002361 0.654558040037168 -127.77537048144 0.654558040034887 -127.77537048144 0.744877167896432 -136.98812144228 
4.68             0.750863987224355 58.3347097765405 0.644251173292017 -129.244405860904 0.644251173289795 -129.244405860901 0.75368290411824 -137.766932986623 
4.72             0.759621228021877 56.1311134160755 0.633627823296608 -130.727071914108 0.633627823294459 -130.727071914099 0.762495119744805 -138.560642187258 
4.76             0.768377347182366 53.9114585722996 0.622679491009184 -132.223433376407 0.622679491007127 -132.223433376393 0.77130625640425 -139.369526176355 
4.8              0.777124122685294 51.6754918210549 0.611397884956322 -133.73351730858 0.611397884954376 -133.733517308559 0.78010803607024 -140.193842804195 
4.84             0.78585259450907 49.4229829861508 0.599774981772824 -135.257308364041 0.599774981771009 -135.257308364011 0.788891442678435 -141.033828333191 
4.88             0.794553050035876 47.1537275148601 0.587803091160738 -136.794743515973 0.587803091159078 -136.794743515934 0.797646707782168 -141.889695079774 
4.92             0.803215014157386 44.8675488892044 0.575474925127566 -138.345706150643 0.575474925126085 -138.345706150593 0.806363300870288 -142.761629017667 
4.96             0.811827244731865 42.5643010565413 0.562783671282261 -139.910019407976 0.562783671280985 -139.910019407916 0.815029924989438 -143.649787358366 
5                0.820377734051702 40.2438708605263 0.549723069878147 -141.487438617097 0.549723069877101 -141.487438617025 0.82363451832218 -144.554296127068 
5.04             0.82885371697632 37.906180451046  0.536287494195624 -143.077642630129 0.536287494194838 -143.077642630045 0.832164262369276 -145.475247754719 
5.08             0.837241686366603 35.5511896492755 0.522472033756479 -144.680223798043 0.522472033755978 -144.680223797947 0.8406055973668  -146.412698709238 
5.12             0.845527416421029 33.1788982416642 0.508272579758238 -146.294676252114 0.508272579758049 -146.294676252005 0.848944245534632 -147.366667191389 
5.16             0.853695994459089 30.7893481744729 0.493685912015108 -147.920382045489 0.493685912015254 -147.920382045369 0.857165242700197 -148.337130922859 
5.2              0.861731861622355 28.3826256185646 0.478709786596142 -149.55659456004 0.478709786596648 -149.556594559909 0.865252978768636 -149.324025056143 
5.24             0.869618862866766 25.9588628725797 0.463343023267703 -151.202418377032 0.463343023268588 -151.202418376891 0.873191247416502 -150.327240237381 
5.28             0.877340306500732 23.5182400714961 0.447585591783949 -152.856784521518 0.447585591785233 -152.85678452137 0.880963305270168 -151.346620854537 
5.32             0.884879033382613 21.0609866669855 0.431438696036715 -154.51841958222 0.43143869603841 -154.518419582065 0.888551940692279 -152.381963503989 
5.36             0.892217495729086 18.5873826460266 0.414904855088837 -156.185806624312 0.414904855090954 -156.185806624154 0.895939552140818 -153.433015708646 
5.4              0.899337845304898 16.0977594549961 0.397987980192602 -157.857134963758 0.397987980195147 -157.857134963601 0.903108235887513 -154.49947492016 
5.44             0.906222030567429 13.5925005980223 0.380693447065729 -159.530234619582 0.3806934470687  -159.530234619428 0.910039882688201 -155.580987836338 
5.48             0.912851902130677 11.0720418807906 0.363028163003868 -161.202489380476 0.363028163007262 -161.202489380332 0.916716282791445 -156.67715006272 
5.52             0.919209325697737 8.53687127428039 0.345000628917533 -162.870719545304 0.345000628921339 -162.870719545175 0.92311923845809 -157.787506144175 
5.56             0.925276301394855 5.98752837708943 0.326620997201575 -164.53102090004 0.326620997205774 -164.531020899932 0.929230682949572 -158.911549988445 
5.6              0.931035088230629 3.42460346003858 0.307901127662321 -166.178539296943 0.307901127666888 -166.178539296864 0.935032804733431 -160.048725698756 
5.64             0.93646833220845 0.848736082583984 0.288854645869345 -167.807148377596 0.288854645874251 -167.807148377554 0.940508175458123 -161.198428827015 
5.68             0.941559196446742 -1.73938672289741 0.269497011869389 -169.408977974987 0.269497011874597 -169.408977974994 0.945639880073527 -162.360008052815 
5.72             0.946291491517602 -4.33903269578454 0.249845613355521 -170.97370573678 0.249845613360986 -170.973705736849 0.950411647326367 -163.532767286553 
5.76             0.950649804107545 -6.94942701017962 0.22991990843869 -172.487460955184 0.229919908444364 -172.48746095533 0.95480797874827 -164.715968187646 
5.8              0.954619622040471 -9.5697553377991 0.209741663979437 -173.931069054067 0.209741663985264 -173.931069054309 0.958814274185131 -165.90883308128 
5.84             0.95818745368786 -12.1991672847354 0.189335376791618 -175.277124852655 0.189335376797536 -175.277124853019 0.962416951894823 -167.110548249492 
5.88             0.96134093982807 -14.8367801686127 0.168729052484976 -176.484874547013 0.168729052490918 -176.484874547532 0.96560356127009 -168.320267565054 
5.92             0.96406895610682 -17.4816830957359 0.147955715674327 -177.490734029852 0.147955715680219 -177.490734030574 0.968362886326211 -169.537116429611 
5.96             0.966361704393854 -20.132941291635 0.127056519466456 -178.189427587153 0.127056519472215 -178.189427588149 0.970685038228529 -170.760195971302 
6                0.968210791523421 -22.7896006331611 0.106087690454261 -178.392941327687 0.106087690459794 -178.392941329075 0.972561535320605 -171.98858745167 
6.04             0.969609294143407 -25.4506923261927 0.0851378983965835 -177.730137209243 0.0851378984017701 -177.730137211237 0.973985369344659 -173.221356827372 
6.08             0.970551808672393 -28.1152376701861 0.0643792890821659 -175.35965782585 0.0643792890868315 -175.3596578289  0.974951056815422 -174.457559409133 
6.12             0.971034485666889 -30.7822528493952 0.0442574662747262 -168.954150114184 0.0442574662785113 -168.954150119429 0.975454674807751 -175.696244558691 
6.16             0.971055048221984 -33.4507536906055 0.0264862986977685 -150.176709781353 0.026486298699558 -150.176709792011 0.975493880737535 -176.93646036416 
6.2              0.970612794356945 -36.1197603287065 0.0194809982523959 -98.5294774909797 0.0194809982495189 -98.529477502577 0.975067916043441 -178.177258235413 
6.24             0.969708583661416 -38.7883017242814 0.0315356502551838 -57.9515940263974 0.0315356502507662 -57.9515940276275 0.974177594003102 -179.417697363558 
6.28             0.968344808787159 -41.4554199815295 0.0504353632644872 -44.7822624154673 0.0504353632605354 -44.7822624147321 0.972825272230012 179.343151007554 
6.32             0.966525352654537 -44.1201744200959 0.0708514208875435 -40.0759146629605 0.0708514208842433 -40.0759146620285 0.971014810687028 178.106199544962 
6.36             0.964255532493719 -46.7816453605595 0.0917138661162236 -38.3768140382798 0.0917138661135947 -38.376814037448 0.968751516309662 176.87234106658  
6.4              0.961542032050878 -49.4389375902204 0.112704839461735 -38.0354550488849 0.11270483945978 -38.0354550482057 0.966042075550303 175.642445092113 
6.44             0.958392823454549 -52.0911834831754 0.133689541167882 -38.4121715005275 0.1336895411666  -38.4121715000025 0.962894476327838 174.417354732296 
6.48             0.954817080354155 -54.7375457562443 0.15459415187497 -39.2108432098932 0.154594151874354 -39.2108432095127 0.959317920992514 173.197883936388 
6.52             0.950825084010635 -57.3772198498644 0.175370116644101 -40.2762640732328 0.175370116644142 -40.2762640729856 0.955322731992415 171.984815110372 
6.56             0.946428124039625 -60.0094359303822 0.195981244194495 -41.5193413813717 0.195981244195174 -41.5193413812461 0.950920251956415 170.778897110961 
6.6              0.941638395483747 -62.6334605170544 0.216398308823395 -42.8852595312507 0.21639830882469 -42.8852595312368 0.946122739891796 169.580843613627 
6.64             0.93646889382683 -65.2485977433356 0.236596534721487 -44.3383960977923 0.236596534723367 -44.3383960978807 0.940943265137076 168.391331846445 
6.68             0.930933309465044 -67.8541902675706 0.256554321845707 -45.854553722658 0.256554321848136 -45.8545537228398 0.93539560061754 167.211001675897 
6.72             0.925045923024346 -70.4496198529068 0.2762525545015  -47.4166840153129 0.276252554504434 -47.4166840155794 0.929494116828751 166.040455025868 
6.76             0.918821502767106 -73.0343076400569 0.295674201606225 -49.0124019469039 0.295674201609617 -49.012401947247 0.923253677828716 164.880255607088 
6.8              0.912275205170126 -75.6077141394428 0.314804069999356 -50.6324739237376 0.314804070003154 -50.6324739241491 0.916689540359144 163.730928931101 
6.84             0.905422479587959 -78.1693389712528 0.33362864068035 -52.2698620554899 0.333628640684497 -52.2698620559617 0.909817257047087 162.592962580661 
6.88             0.898278977745493 -80.7187203830876 0.352135950811447 -53.9190996881056 0.352135950815885 -53.9190996886299 0.902652584466183 161.466806707053 
6.92             0.890860468637388 -83.2554345752148 0.370315501096786 -55.5758714469907 0.370315501101453 -55.5758714475594 0.895211396667252 160.352874724289 
6.96             0.883182759253687 -85.7790948630812 0.388158177101348 -57.2367235392333 0.388158177106185 -57.2367235398385 0.887509604625752 159.251544170316 
7                0.875261621404036 -88.2893507057448 0.405656178042309 -58.8988593263195 0.40565617804725 -58.8988593269533 0.879563081902252 158.16315770613  
7.04             0.867112724780332 -90.785886627377 0.422802949431173 -60.5599920884805 0.422802949436159 -60.5599920891349 0.871387596674468 157.088024225125 
7.08             0.858751576280716 -93.268421057063 0.439593117612582 -62.218236989445 0.439593117617549 -62.2182369901124 0.862998750177515 156.026420046729 
7.12             0.850193465517737 -95.7367051098932 0.45602242523551 -63.8720304409233 0.456022425240399 -63.8720304415962 0.854411921483841 154.978590170566 
7.16             0.841453416350309 -98.1905213298934 0.4720876672805  -65.5200689623768 0.472087667285256 -65.5200689630477 0.845642218466285 153.944749569743 
7.2              0.832546144212431 -100.629682412769 0.487786627609912 -67.1612621401862 0.487786627614481 -67.1612621408478 0.836704434716566 152.925084504396 
7.24             0.823486018960625 -103.054029923837 0.50311801619961 -68.7946959388833 0.503118016203941 -68.7946959395287 0.827613012136394 151.91975383923  
7.28             0.814287032925396 -105.463433023941 0.51808140730665 -70.4196037208027 0.518081407310698 -70.4196037214253 0.818382008878312 150.928890351373 
7.32             0.804962773828296 -107.857787213657 0.53267717886335 -72.0353430820044 0.532677178867072 -72.0353430825979 0.809025072286671 149.952602017386 
7.36             0.795526402213646 -110.237013103774 0.546906453386603 -73.641377131969 0.546906453389961 -73.6413771325276 0.799555416474341 148.990973270679 
7.4              0.785990633041009 -112.601055217839 0.560771040666889 -75.2372592089919 0.560771040669847 -75.2372592095101 0.78998580416611 148.044066222802 
7.44             0.776367721089307 -114.949880830645 0.574273382464257 -76.8226202821296 0.574273382466788 -76.8226202826023 0.780328532443422 147.111921844145 
7.48             0.766669449834534 -117.283478844757 0.587416499395031 -78.3971584767138 0.58741649939711 -78.3971584771364 0.770595422035663 146.194561101384 
7.52             0.756907123478716 -119.601858705723 0.600203940147563 -79.9606302958177 0.600203940149169 -79.9606302961863 0.760797809818823 145.291986050636 
7.56             0.74709156182676 -121.905049355311 0.612639733121079 -81.5128432094974 0.612639733122194 -81.5128432098085 0.750946544201862 144.404180886629 
7.6              0.737233097728983 -124.193098221118 0.624728340540174 -83.053649357402 0.624728340540784 -83.0536493576527 0.741051983103019 143.531112949355 
7.64             0.72734157682931 -126.466070240048 0.636474615060258 -84.5829401655825 0.636474615060353 -84.5829401657703 0.731123994241615 142.672733690568 
7.68             0.717426359381534 -128.724046912596 0.647883758846481 -86.1006417200517 0.647883758846055 -86.100641720175 0.721171957494737 141.828979603194 
7.72             0.707496323918066 -130.96712538442 0.65896128508103 -87.6067107714302 0.658961285080077 -87.6067107714876 0.711204769091686 140.999773117238 
7.76             0.69755987257653 -133.195417551484 0.669712981830745 -89.1011312694362 0.669712981829264 -89.1011312694271 0.70123084744171 140.185023466056 
7.8              0.68762493790927 -135.409049184939 0.680144878188888 -90.5839113448862 0.680144878186877 -90.5839113448105 0.691258140411914 139.384627527069 
7.84             0.677698991018789 -137.608159071982 0.690263212591027 -92.0550806716509 0.690263212588486 -92.055080671509 0.681294133891903 138.598470640956 
7.88             0.667789050878449 -139.792898169081 0.700074403195136 -93.514688152637 0.700074403192065 -93.5146881524301 0.671345861499634 137.826427413293 
7.92             0.657901694712137 -141.963428764225 0.709585020209602 -94.9627998831111 0.709585020206004 -94.9627998828407 0.661419915298922 137.068362502348 
7.96             0.648043069319278 -144.119923645182 0.718801760049467 -96.3994973520695 0.718801760045343 -96.3994973517377 0.651522457413081 136.324131396486 
8                0.638218903242365 -146.262565271154 0.727731421200488 -97.8248758483504 0.727731421195837 -97.8248758479598 0.641659232431322 135.593581184193 
8.04             0.628434519683506 -148.39154494565 0.736380881671891 -99.2390430430435 0.736380881666715 -99.2390430425971 0.631835580514907 134.876551319378 
8.08             0.61869485008416 -150.507061988879 0.744757077921912 -100.64211772377 0.744757077916207 -100.642117723271 0.622056451118729 134.172874384053 
8.12             0.609004448288651 -152.609322908449 0.752866985144576 -102.034228659729 0.752866985138341 -102.034228659182 0.612326417251195 133.482376850072 
8.16             0.599367505217317 -154.698540567659 0.760717598811787 -103.415513579184 0.760717598805016 -103.415513578593 0.602649690201063 132.804879841037 
8.2              0.589787863979285 -156.774933351176 0.768315917370977 -104.786118243434 0.768315917363664 -104.786118242803 0.593030134664607 132.140199894978 
8.24             0.580269035358253 -158.838724328389 0.775668926005374 -106.14619560329 0.775668925997508 -106.146195602625 0.583471284210044 131.488149727906 
8.28             0.570814213607289 -160.890140415182 0.782783581370939 -107.495905025825 0.782783581362511 -107.495905025131 0.573976357019006 130.848538997806 
8.32             0.561426292490684 -162.929411535387 0.789666797231189 -108.835411580635 0.789666797222186 -108.835411579917 0.564548271846862 130.221175068152 