! Touchstone file from project TestMultiLine
! Exported from HFSS 14.0.0
! Variables:
!  gap = 8mm
!  hair = 35mm
!  hsub = 0.762mm
!  l = 36mm
!  lair = 50mm
!  lmic = 14mm
!  w = 25mm
!  wair = 40mm
!  wmic = 2.1mm
!  wp = 1mm
!Data is not renormalized
# GHZ S MA
! Modal data exported
! Port[1] = 1:1
! Port[2] = 2:1
1                0.113991218752407 -110.253054431034 0.990554809852989 -21.0812343552402 0.990554809852779 -21.0812343552402 0.114046634149718 -110.738651577986 
1.04             0.118955694116339 -111.164577114211 0.989833321851037 -21.9349973174445 0.989833321850633 -21.9349973173958 0.11900907152088 -111.569624301515 
1.08             0.123964198867602 -112.072957634145 0.989078028339323 -22.7899547720203 0.989078028338812 -22.7899547719254 0.124014997443502 -112.402713839498 
1.12             0.129017709435846 -112.978639316246 0.988288400740328 -23.6461469289233 0.98828840073979 -23.6461469287857 0.12906542040367 -113.237952312348 
1.16             0.134117131029321 -113.882015958727 0.987463886000903 -24.5036138387119 0.987463886000408 -24.503613838535 0.134161278951726 -114.075379719858 
1.2              0.139263295800909 -114.783440384378 0.986603907248336 -25.3623952706137 0.986603907247943 -25.3623952704018 0.139303439823129 -114.915042548278 
1.24             0.144456961214987 -115.683231268816 0.985707864743038 -26.2225306122151 0.985707864742798 -26.2225306119725 0.144492696209503 -115.756992582884 
1.28             0.149698808622493 -116.581678622229 0.984775137062003 -27.084058791186 0.984775137061956 -27.0840587909171 0.149729766196684 -116.601285882042 
1.32             0.154989442053361 -117.479048210837 0.983805082452708 -27.9470182190724 0.983805082452884 -27.9470182187819 0.155015291386707 -117.447981879913 
1.36             0.160329387236854 -118.375585137582 0.982797040303037 -28.8114467568502 0.982797040303458 -28.8114467565427 0.160349835720899 -118.297142593116 
1.4              0.16571909086141 -119.271516751878 0.981750332678657 -29.677381701684 0.981750332679332 -29.6773817013641 0.16573388452139 -119.148831912784 
1.44             0.171158920086314 -120.167055021166 0.980664265884857 -30.544859794154 0.98066426588579 -30.544859793826 0.171167843768544 -120.003114968067 
1.48             0.176649162318087 -121.062398468746 0.979538132015151 -31.4139172450716 0.979538132016338 -31.41391724474  0.176652039631853 -120.860057550607 
1.52             0.182190025264709 -121.95773376099 0.978371210453649 -32.2845897809229 0.978371210455077 -32.2845897805916 0.182186718271736 -121.719725592234 
1.56             0.187781637280838 -122.853237010439 0.977162769302547 -33.1569127069157 0.977162769304199 -33.1569127065886 0.187772045929488 -122.582184690195 
1.6              0.193424048016964 -123.749074848516 0.975912066709876 -34.0309209865844 0.975912066711727 -34.030920986265 0.19340810932213 -123.447499675823 
1.64             0.199117229384974 -124.645405311539 0.974618352076   -34.9066493368931 0.974618352078022 -34.9066493365846 0.199094916358272 -124.315734223841 
1.68             0.204861076851851 -125.542378575878 0.97328086712031 -35.7841323377938 0.973280867122471 -35.784132337499 0.204832397190187 -125.186950500453 
1.72             0.210655411072252 -126.440137571792 0.97189884679208 -36.6634045551944 0.971898846794344 -36.6634045549159 0.210620405616075 -126.061208849105 
1.76             0.216499979869404 -127.338818500525 0.970471520011671 -37.5445006763464 0.970471520014002 -37.5445006760862 0.216458720845064 -126.938567513438 
1.8              0.222394460572219 -128.238551275163 0.968998110230196 -38.4274556566585 0.968998110232554 -38.4274556564184 0.222347049635693 -127.8190823973  
1.84             0.228338462714682 -129.139459902507 0.967477835797365 -39.3123048769993 0.96747783579971 -39.3123048767808 0.228285028816597 -128.702806862095 
1.88             0.234331531101442 -130.041662820485 0.965909910128714 -40.1990843105649 0.965909910131009 -40.1990843103689 0.234272228195729 -129.589791561852 
1.92             0.24037314924118 -130.945273203427 0.964293541664613 -41.0878306984323 0.964293541666818 -41.0878306982596 0.240308153861792 -130.480084316627 
1.96             0.24646274314667 -131.850399245624 0.962627933614557 -41.9785817329424 0.962627933616634 -41.9785817327934 0.246392251878667 -131.373730024835 
2                0.25259968549757 -132.757144432021 0.960912283481212 -42.8713762480853 0.960912283483126 -42.8713762479599 0.25252391237035 -132.270770615135 
2.04             0.258783300158911 -133.665607803535 0.959145782359502 -43.7662544160864 0.959145782361219 -43.7662544159846 0.258702473990548 -133.171245038419 
2.08             0.26501286704496 -134.575884223308 0.957327614006805 -44.6632579494199 0.957327614008293 -44.6632579493411 0.264927228767377 -134.07518930036 
2.12             0.271287627314684 -135.488064649159 0.955456953681014 -45.5624303074926 0.955456953682245 -45.5624303074361 0.271197427309808 -134.982636534804 
2.16             0.277606788881513 -136.402236416615 0.953532966743841 -46.4638169072625 0.953532966744791 -46.4638169072273 0.277512284358528 -135.893617118148 
2.2              0.283969532216435 -137.318483536049 0.951554807027325 -47.3674653370779 0.951554807027971 -47.3674653370629 0.283870984659833 -136.808158824571 
2.24             0.290375016419809 -138.236887006703 0.949521614962066 -48.2734255730279 0.949521614962391 -48.2734255730318 0.290272689137092 -137.726287021824 
2.28             0.296822385533598 -139.157525149757 0.947432515466206 -49.1817501971261 0.947432515466193 -49.1817501971474 0.29671654133019 -138.648024906956 
2.32             0.30331077506214 -140.080473961887 0.94528661559469 -50.0924946166423 0.945286615594329 -50.0924946166794 0.303201674069399 -139.573393781144 
2.36             0.309839318666061 -141.005807490276 0.9430830019488  -51.0057172839221 0.943083001948084 -51.0057172839734 0.309727216346183 -140.502413362457 
2.4              0.316407154990618 -141.933598229443 0.940820737846424 -51.9214799160378 0.940820737845348 -51.9214799161016 0.316292300339757 -141.435102135153 
2.44             0.323013434586623 -142.863917539799 0.938498860253963 -52.83984771362  0.938498860252526 -52.8398477136944 0.322896068554728 -142.371477733773 
2.48             0.329657326879214 -143.79683608738 0.936116376481235 -53.7608895782312 0.936116376479441 -53.7608895783145 0.329537681021973 -143.311557360047 
2.52             0.33633802713717 -144.732424303775 0.933672260641146 -54.6846783276437 0.933672260639001 -54.6846783277341 0.336216322512018 -144.255358230339 
2.56             0.343054763393211 -145.67075286491 0.931165449876353 -55.6112909083879 0.931165449873864 -55.6112909084836 0.342931209707776 -145.202898051081 
2.6              0.349806803263853 -146.611893186969 0.928594840355552 -56.5408086049419 0.928594840352732 -56.5408086050412 0.34968159828139 -146.15419551945 
2.64             0.356593460615866 -147.555917937454 0.925959283042495 -57.4733172449302 0.92595928303936 -57.4733172450314 0.356466789818366 -147.109270846251 
2.68             0.363414102025354 -148.502901559084 0.923257579241252 -58.4089073997012 0.923257579237817 -58.4089073998027 0.363286138531055 -148.068146297817 
2.72             0.37026815297476 -149.452920804004 0.920488475921696 -59.3476745796439 0.92048847591798 -59.3476745797442 0.370139057702872 -149.030846753547 
2.76             0.377155103732916 -150.406055275559 0.917650660829716 -60.2897194236061 0.917650660825739 -60.2897194237037 0.377025025804543 -149.997400275541 
2.8              0.384074514863404 -151.362387974734 0.914742757387084 -61.2351478817581 0.914742757382869 -61.2351478818518 0.383943592223937 -150.967838686712 
2.84             0.391026022307103 -152.322005848205 0.911763319386532 -62.1840713912419 0.911763319382102 -62.1840713913304 0.390894382551916 -151.942198153612 
2.88             0.398009341985764 -153.285000334859 0.90871082548811 -63.1366070439211 0.908710825483489 -63.1366070440035 0.397877103367789 -152.920519770224 
2.92             0.405024273874771 -154.251467907579 0.905583673523582 -64.0928777455386 0.905583673518797 -64.0928777456139 0.404891546469692 -153.902850138892 
2.96             0.412070705494899 -155.221510607033 0.902380174616305 -65.0530123655485 0.902380174611378 -65.0530123656159 0.41193759249715 -154.889241944608 
3                0.419148614774768 -156.195236564235 0.899098547124805 -66.0171458768797 0.899098547119763 -66.0171458769386 0.41901521389545 -155.879754518898 
3.04             0.426258072237855 -157.172760508632 0.89573691041921 -66.9854194848305 0.895736910414079 -66.9854194848804 0.426124477174021 -156.874454389622 
3.08             0.433399242470197 -158.154204258559 0.892293278500613 -67.9579807442739 0.892293278495417 -67.9579807443143 0.433265544413787 -157.873415813107 
3.12             0.440572384827394 -159.139697190951 0.88876555347464 -68.9349836642886 0.888765553469403 -68.9349836643194 0.440438673981409 -158.876721285114 
3.16             0.447777853341952 -160.129376687303 0.88515151889172 -69.9165887992884 0.885151518886467 -69.9165887993095 0.447644220411297 -159.884462027337 
3.2              0.455016095794581 -161.123388552973 0.881448832968053 -70.9029633256467 0.881448832962805 -70.9029633256581 0.454882633419293 -160.896738446211 
3.24             0.462287651915459 -162.121887407058 0.877655021702876 -71.8942811027559 0.877655021697655 -71.8942811027577 0.462154456014896 -161.913660561048 
3.28             0.469593150683907 -163.125037040174 0.87376747190953 -72.8907227173633 0.873767471904354 -72.8907227173559 0.469460321681742 -162.93534839861 
3.32             0.476933306697146 -164.133010737644 0.86978342417992 -73.8924755099503 0.86978342417481 -73.8924755099339 0.476800950598774 -163.961932351482 
3.36             0.484308915580896 -165.145991565691 0.865699965804394 -74.8997335818069 0.865699965799365 -74.8997335817823 0.484177144877068 -164.993553497734 
3.4              0.49172084841651 -166.164172618403 0.861514023671681 -75.9126977813475 0.861514023666746 -75.912697781315 0.49158978278956 -166.03036387954 
3.44             0.499170045161005 -167.187757223338 0.857222357176668 -76.9315756680838 0.857222357171842 -76.9315756680443 0.499039811973002 -167.072526738605 
3.48             0.50665750703788 -168.216959103762 0.852821551167118 -77.9565814525367 0.852821551162412 -77.9565814524908 0.506528241583273 -168.120216706381 
3.52             0.514184287877876 -169.252002495609 0.848308008964239 -78.9879359102074 0.848308008959663 -78.9879359101558 0.514056133386758 -169.173619947187 
3.56             0.521751484389988 -170.293122217366 0.843677945496274 -80.0258662675738 0.843677945491834 -80.0258662675176 0.521624591771811 -170.232934252489 
3.6              0.529360225343968 -171.340563691097 0.838927380588942 -81.0706060578814 0.838927380584642 -81.0706060578213 0.529234752665514 -171.298369084661 
3.64             0.537011659646452 -172.394582912949 0.83405213246174 -82.1223949443086 0.834052132457585 -82.1223949442456 0.536887771341904 -172.370145568638 
3.68             0.544706943293683 -173.455446371429 0.829047811484847 -83.1814785078676 0.829047811480838 -83.1814785078025 0.544584809108786 -173.448496429921 
3.72             0.552447225184642 -174.523430911822 0.823909814257568 -84.2481079971634 0.823909814253703 -84.2481079970972 0.552327018861135 -174.5336658774  
3.76             0.56023363177945 -175.598823545035 0.818633318076115 -85.3225400368886 0.818633318072393 -85.3225400368222 0.560115529490117 -175.625909429494 
3.8              0.568067250589125 -176.681921199177 0.813213275865884 -86.405036291652 0.813213275862301 -86.4050362915862 0.567951429137962 -176.725493682027 
3.84             0.575949112484389 -177.773030412081 0.807644411661365 -87.4958630814452 0.807644411657915 -87.4958630813809 0.575835747290403 -177.832696016268 
3.88             0.58388017281338 -178.872466962916 0.801921216725413 -88.5952909447419 0.801921216722091 -88.5952909446799 0.583769435700468 -178.947804245439 
3.92             0.591861291320853 -179.980555440959 0.796037946408714 -89.703594144877 0.796037946405512 -89.703594144818 0.591753348139942 179.928883802056 
3.96             0.59989321086511 178.902371250548 0.789988617859989 -90.8210501149916 0.789988617856898 -90.8210501149362 0.59978821897829 178.797060764569 
4                0.607976534933497 177.775972457593 0.783767008707637 -91.9479388364411 0.783767008704648 -91.9479388363899 0.607874640593153 177.656410296276 
4.04             0.616111703963139 176.639900407936 0.77736665684416 -93.0845421451352 0.777366656841263 -93.0845421450886 0.616013039622137 176.506607685511 
4.08             0.624298970480827 175.493800915381 0.77078086145564 -94.2311429598336 0.770780861452824 -94.2311429597921 0.624203652072474 175.34732054457  
4.12             0.63253837308483 174.337314158269 0.76400268544975 -95.3880244259228 0.764002685447007 -95.3880244258864 0.632446497313669 174.178209573346 
4.16             0.640829709302101 173.170075534767 0.757024959447014 -96.5554689676707 0.757024959444334 -96.5554689676397 0.640741350988537 172.998929399227 
4.2              0.649172507367113 171.991716597597 0.749840287511173 -97.7337572413753 0.749840287508546 -97.7337572413497 0.649087716890331 171.809129495768 
4.24             0.657565996983571 170.801866070839 0.742441054805327 -98.9231669811788 0.742441054802745 -98.9231669811585 0.65748479786819 170.608455182698 
4.28             0.666009079147757 169.600150951448 0.734819437370667 -100.123971728612 0.734819437368121 -100.123971728597 0.665931465840089 169.396548709797 
4.32             0.674500295132398 168.386197698024 0.726967414233865 -101.336439436135 0.726967414231352 -101.336439436124 0.674426231012013 168.173050427123 
4.36             0.683037794752905 167.1596335092   0.718876782057067 -102.560830934024 0.718876782054579 -102.560830934017 0.682967210424345 166.937600043946 
4.4              0.691619304063696 165.920087693812 0.710539172550562 -103.797398248932 0.710539172548097 -103.797398248929 0.691552095971641 165.689837978512 
4.44             0.700242092661156 164.667193134619 0.701946072872126 -105.046382761194 0.701946072869684 -105.046382761194 0.700178122070013 164.429406800456 
4.48             0.708902940801635 163.40058784694  0.693088849238   -106.308013186537 0.693088849235579 -106.308013186539 0.708842033177331 163.155952767275 
4.52             0.717598106577553 162.119916632947 0.683958773968182 -107.582503366086 0.683958773965787 -107.582503366089 0.717540051405298 161.869127455707 
4.56             0.726323293432111 160.824832831675 0.67454705618222 -108.870049846447 0.674547056179853 -108.87004984645 0.726267844498906 160.568589488194 
4.6              0.735073618332889 159.515000163894 0.664844876350416 -110.170829229037 0.664844876348086 -110.170829229039 0.735020494497625 159.254006353775 
4.64             0.743843580966335 158.190094669991 0.65484342488865 -111.484995264545 0.654843424886368 -111.484995264544 0.743792467433431 157.925056321756 
4.68             0.752627034358197 156.849806737759 0.644533944961919 -112.812675664311 0.644533944959697 -112.812675664308 0.752577584462862 156.581430445345 
4.72             0.761417157368574 155.493843215609 0.633907779631697 -114.153968595165 0.633907779629547 -114.153968595157 0.761368994872952 155.222834651094 
4.76             0.770206429553399 154.121929605165 0.622956423444496 -115.508938817564 0.622956423442438 -115.508938817549 0.770159151443201 153.848991908466 
4.8              0.778986608925763 152.733812325385 0.611671578513026 -116.877613418244 0.611671578511079 -116.877613418223 0.778939788686511 152.459644472146 
4.84             0.787748713189007 151.329261038468 0.600045215086594 -118.259977077387 0.600045215084778 -118.259977077358 0.787701904529946 151.054556187799 
4.88             0.796483005047482 149.908071025656 0.588069636543652 -119.655966795694 0.588069636541991 -119.655966795655 0.79643574602966 149.633514849989 
4.92             0.805178982228416 148.470065598818 0.575737548666618 -121.065465987652 0.575737548665135 -121.065465987603 0.805130799741694 148.196334598701 
4.96             0.813825372867467 147.015098531334 0.563042132977515 -122.488297822063 0.563042132976239 -122.488297822002 0.813775787389581 146.742858338668 
5                0.822410136919276 145.543056489337 0.549977123823526 -123.92421765753 0.549977123822481 -123.924217657458 0.822358667478777 145.272960163255 
5.04             0.830920474250282 144.053861441919 0.536536888805186 -125.372904376217 0.5365368888044  -125.372904376132 0.830866643504807 143.786547762233 
5.08             0.839342840052244 142.547473026457 0.522716512038873 -126.833950359648 0.522716512038371 -126.833950359552 0.839286179384321 142.28356479037  
5.12             0.847662968179037 141.023890842852 0.508511879641793 -128.306849770124 0.508511879641603 -128.306849770015 0.847603022704155 140.763993171403 
5.16             0.855865902954539 139.483156648322 0.493919766725711 -129.790984692246 0.493919766725857 -129.790984692126 0.855802236330845 139.227855309778 
5.2              0.863936039924125 137.925356422427 0.478937925089703 -131.285608539727 0.478937925090209 -131.285608539596 0.863868238850419 137.67521618062  
5.24             0.871857175925299 136.35062227048  0.463565170718578 -132.789825926025 0.463565170719463 -132.789825925884 0.871784854214339 136.106185266733 
5.28             0.879612568733732 134.759134132331 0.447801470130237 -134.302567908695 0.447801470131521 -134.302567908546 0.879535370851683 134.520918310274 
5.32             0.887185006399642 133.151121262941 0.431648024582831 -135.822561109235 0.431648024584526 -135.822561109081 0.887102610370043 132.919618846026 
5.36             0.894556886226956 131.526863451202 0.415107351165235 -137.348288625838 0.415107351167353 -137.34828862568 0.894469005809079 131.302539483127 
5.4              0.901710303166192 129.88669194423  0.398183359872025 -138.87793980769 0.398183359874571 -138.877939807532 0.901616689233134 129.669982902743 
5.44             0.908627147194414 128.230990045916 0.380881425934913 -140.409344707208 0.380881425937887 -140.409344707054 0.908527588255549 128.022302540516 
5.48             0.915289209046138 126.56019336091  0.36320845698933 -141.939887146624 0.363208456992726 -141.93988714648 0.915183530881356 126.359902924866 
5.52             0.921678293442874 124.874789658544 0.345172955163987 -143.466387458447 0.345172955167795 -143.466387458318 0.921566357841865 124.683239645275 
5.56             0.927776338752351 123.175318335325 0.32678507500191 -144.984941462384 0.326785075006111 -144.984941462276 0.927658041380179 122.992818928631 
5.6              0.933565541798165 121.462369459704 0.308056679439083 -146.490695044479 0.308056679443653 -146.490695044399 0.93344080923778 121.289196806507 
5.64             0.939028486344525 119.736582388648 0.289001398209852 -147.977521880127 0.289001398214761 -147.977521880086 0.9388972723964  119.572977861858 
5.68             0.944148273606468 117.998643952074 0.269634696620724 -149.437551836134 0.269634696625935 -149.437551836141 0.944010554954118 117.844813549919 
5.72             0.948908652991421 116.249286208321 0.24997396879307 -150.860462593956 0.249973968798539 -150.860462594025 0.948764424367809 116.105400094988 
5.76             0.953294151170532 114.489283781316 0.230038680535389 -152.232383479554 0.230038680541066 -152.2323834797  0.953143420182983 114.355475972118 
5.8              0.957290197514187 112.719450797818 0.209850607827726 -153.534139950476 0.209850607833556 -153.534139950718 0.957132979303161 112.595818990284 
5.84             0.960883243910766 110.940637450782 0.189434258277614 -154.738326859543 0.189434258283535 -154.738326859907 0.960719555829627 110.827243001215 
5.88             0.964060877024336 109.15372622232  0.168817650409741 -155.804190436305 0.168817650415686 -155.804190436824 0.963890733532185 109.05059426543  
5.92             0.966811921137297 107.359627806668 0.148033824721487 -156.66814660683 0.148033824727381 -156.668146607552 0.966635329094393 107.26674751403  
5.96             0.969126529867003 105.559276779752 0.127123954890535 -157.224919690312 0.127123954896297 -157.224919691308 0.96894348441213 105.476601750994 
6                0.970996265238426 103.753627067188 0.106144296588858 -157.28649582857 0.106144296594394 -157.286495829958 0.970806746409783 103.681075846215 
6.04             0.972414162832564 101.943647266681 0.0851835666917093 -156.481737012263 0.0851835666968988 -156.481737014257 0.972218133069031 101.881103973715 
6.08             0.973374782005442 100.130315883559 0.0644140041165491 -153.969285868094 0.0644140041212171 -153.969285871143 0.973172184634189 100.077630952635 
6.12             0.973874240476236 98.3146165396439 0.0442814559227659 -147.421789365204 0.0442814559265531 -147.421789370449 0.973664999256907 98.2716075502311 
6.16             0.973910232904936 96.4975332155995 0.026500730183234 -128.502343242942 0.0265007301850245 -128.5023432536  0.973694252661606 96.4639858064561 
6.2              0.973482033409158 94.6800455854336 0.0194916676549956 -76.7130881969382 0.019491667652117 -76.7130882085355 0.97325920174054 94.6557144385304 
6.24             0.972590482294824 92.8631244989825 0.0315530105334081 -35.9931650422816 0.0315530105289881 -35.9931650435116 0.972360672312741 92.8477343814101 
6.28             0.971237957585644 91.047727664055  0.0504632696162691 -22.6817768383311 0.0504632696123151 -22.681776837596 0.971001031593264 91.0409745162422 
6.32             0.969428332221556 89.2347955746664 0.070890822743743 -17.8333556210853 0.0708908227404409 -17.8333556201533 0.969184146208088 89.2363476339506 
6.36             0.967166918047925 87.4252477256091 0.0917651275402974 -15.9921646908935 0.0917651275376669 -15.9921646900617 0.966915326846828 87.4347466751841 
6.4              0.964460397928342 85.6199791467199 0.112768149601931 -15.5086985858734 0.112768149599975 -15.5086985851942 0.964201260862836 85.6370412811959 
6.44             0.961316747479488 83.8198572828558 0.133765014032713 -15.7432911421356 0.13376501403143 -15.7432911416105 0.961049934303157 83.8440746830484 
6.48             0.957745148043872 82.0257192380132 0.154681859419351 -16.3998222064194 0.154681859418735 -16.3998222060389 0.957470544975825 82.0566609490785 
6.52             0.953755892584621 80.2383693944777 0.175470102348796 -17.3230857047163 0.175470102348837 -17.323085704469 0.953473408238238 80.2755826030631 
6.56             0.949360286207267 78.4585774105709 0.196093529609084 -18.4239889572721 0.196093529609763 -18.4239889571465 0.949069857218635 78.5015886182071 
6.6              0.94457054298975 76.6870765936858 0.216522897175115 -19.6477163901225 0.216522897176411 -19.6477163901086 0.944272139165932 76.7353927851428 
6.64             0.939399680738114 74.9245626390312 0.236733413166628 -20.9586456069537 0.236733413168509 -20.9586456070422 0.939093309565498 74.9776724457555 
6.68             0.933861415187438 73.1716927189685 0.256703463042925 -22.3325792778546 0.256703463045356 -22.3325792780364 0.933547125565455 73.2290675789644 
6.72             0.927970055041745 71.4290849031256 0.27641391782597 -23.7524690403769 0.276413917828906 -23.7524690406434 0.927647940136   71.4901802197077 
6.76             0.921740399099829 69.6973178856572 0.295847734164137 -25.2059298934098 0.295847734167531 -25.2059298937529 0.921410598239773 69.7615741883621 
6.8              0.915187636552895 67.9769309931206 0.314989707526256 -26.6837282706543 0.314989707530057 -26.6837282710659 0.914850336131355 68.0437751047044 
6.84             0.908327251371231 66.2684244444362 0.333826308368272 -28.17882630883  0.333826308372422 -28.1788263093018 0.90798268473501 66.3372706582924 
6.88             0.901174931526724 64.5722598332553 0.352345564089285 -29.6857573805718 0.352345564093725 -29.6857573810961 0.900823377878016 64.6425111057774 
6.92             0.893746483631252 62.8888608027181 0.370536966377067 -31.2002061376207 0.370536966381738 -31.2002061381894 0.893388265987768 62.9599099650965 
6.96             0.886057753412197 61.2186138829509 0.3883913925002  -32.718718813043 0.388391392505039 -32.7187188136482 0.885693235698827 61.2898448766643 
7                0.8781245522991  59.5618694626408 0.405901034075764 -34.2384987939448 0.405901034080708 -34.2384987945786 0.877754135665049 59.6326586024941 
7.04             0.869962590262393 57.9189428675379 0.42305932968894 -35.7572593858182 0.423059329693929 -35.7572593864726 0.869586708734589 57.988660135535  
7.08             0.861587414927895 56.290115520658  0.439860899409273 -37.2731157772936 0.439860899414242 -37.273115777961 0.86120653052387 56.3581258933111 
7.12             0.853014356890339 54.6756361611916 0.45630148023877 -38.7845044046233 0.456301480243662 -38.7845044052962 0.852628954321701 54.7413009720814 
7.16             0.844258481065702 53.0757221015717 0.472377862115293 -40.2901218114517 0.472377862120053 -40.2901218121225 0.843869062166854 53.1384004401281 
7.2              0.835334543855215 51.4905605047258 0.488087824438179 -41.7888776079835 0.488087824442751 -41.7888776086451 0.834941621871446 51.5496106513061 
7.24             0.826256955842696 49.9203096661392 0.503430073274651 -43.279857782217 0.503430073278985 -43.2798577828625 0.825861049707507 49.9750905625857 
7.28             0.817039749710083 48.3651002879334 0.518404179501752 -44.7622957195965 0.518404179505803 -44.7622957202191 0.816641378434111 48.4149730419106 
7.32             0.807696553032139 46.8250367346489 0.533010518174377 -46.2355490389362 0.533010518178101 -46.2355490395298 0.807296230315864 46.869366155216  
7.36             0.798240565598745 45.3001982627583 0.547250209408472 -47.6990808721178 0.547250209411832 -47.6990808726763 0.797838794768772 45.3383544238489 
7.4              0.788684540910143 43.7906402181043 0.561125061044076 -49.152444579486 0.561125061047036 -49.1524445800041 0.788281810264904 43.8220000458704 
7.44             0.779040771495277 42.2963951974033 0.574637513315619 -50.5952711517972 0.574637513318152 -50.5952711522699 0.778637550131006 42.3203440767614 
7.48             0.769321077714445 40.8174741717008 0.58779058571343 -52.0272587357364 0.58779058571551 -52.027258736159 0.768917811886772 40.8334075668811 
7.52             0.759536799723139 39.353867571148  0.600587826174875 -53.4481638553855 0.600587826176481 -53.4481638557541 0.75913390978408 39.3611926546296 
7.56             0.749698792293044 37.9055463317427 0.613033262699307 -54.857794001468 0.613033262700423 -54.8577940017791 0.749296670228019 37.9036836156334 
7.6              0.739817422207276 36.4724629057091 0.625131357439452 -56.2560013339619 0.625131357440063 -56.2560013342126 0.739416429782387 36.4608478694079 
7.64             0.729902567969215 35.054552237992  0.636886963284579 -57.6426772989121 0.636886963284674 -57.6426772990999 0.729503035485644 35.0326369458681 
7.68             0.719963621586756 33.6517327119589 0.648305282918058 -59.0177480019936 0.648305282917632 -59.0177480021169 0.719565847227101 33.6189874147559 
7.72             0.710009492215834 32.2639070678022 0.659391830304176 -60.3811702131608 0.659391830303223 -60.3811702132182 0.7096137419566  32.2198217815549 
7.76             0.700048611468115 30.8909632973767 0.670152394536197 -61.7329279011412 0.670152394534715 -61.7329279011321 0.699655119523526 30.8350493537854 
7.8              0.690088940207438 29.5327755192939 0.680593005959461 -63.0730292154404 0.680593005957448 -63.0730292153646 0.689697909962355 29.4645670817274 
7.84             0.680137976677661 28.1892048380402 0.690719904469482 -64.4015038483007 0.69071990446694 -64.4015038481589 0.679749582061557 28.1082603776343 
7.88             0.670202765820837 26.8601001907253 0.700539509875114 -65.7184007206888 0.700539509872042 -65.7184007204819 0.669817153070569 26.7660039173827 
7.92             0.660289909659127 25.5452991848085 0.710058394210422 -67.0237859456224 0.710058394206821 -67.0237859453519 0.65990719941552 25.4376624282923 
7.96             0.650405578626491 24.2446289298136 0.719283255875569 -68.3177410295449 0.719283255871441 -68.3177410292131 0.65002586830835 24.1230914665391 
8                0.6405555237471  22.9579068656481 0.728220895486236 -69.6003612784424 0.728220895481582 -69.6003612780518 0.640178890146163 22.8221381872073 
8.04             0.630745089566665 21.6849415897018 0.736878193312418 -70.871754380257 0.736878193307239 -70.8717543798106 0.630371591607943 21.5346421095988 
8.08             0.620979227750654 20.4255336844269 0.745262088190635 -72.1320391391723 0.745262088184927 -72.1320391386736 0.620608909364465 20.2604358799417 
8.12             0.611262511269745 19.179476546612  0.753379557797955 -73.381344340663 0.753379557791716 -73.381344340116 0.610895404324412 18.9993460331417 
8.16             0.601599149098159 17.9465572190597 0.761237600181878 -74.6198077289891 0.761237600175102 -74.619807728398 0.601235276345487 17.7511937547076 
8.2              0.591993001354656 16.7265572248794 0.768843216446257 -75.8475750811681 0.768843216438938 -75.8475750805376 0.591632379344011 16.5157956434536 
8.24             0.582447594819374 15.5192534041099 0.776203394500297 -77.0647993634591 0.776203394492426 -77.0647993627941 0.582090236740065 15.2929644750699 
8.28             0.572966138762318 14.3244187519084 0.783325093784637 -78.2716399581159 0.783325093776203 -78.2716399574215 0.572612057178086 14.0825099661347 
8.32             0.563551541021318 13.1418232570763 0.79021523089568 -79.4682619496531 0.790215230886671 -79.4682619489349 0.563200750464839 12.8842395376517 
8.36             0.55420642426892 11.9712347392527 0.796880666036418 -80.6548354611653 0.796880666026815 -80.6548354604285 0.553858943668244 11.6979590767203 